V -t * -v 1.0a5 -a 0
A -t * -n 1 -p 0 -o 0x7fffffff -c 30 -a 1
A -t * -h 1 -m 1073741823 -s 0
c -t * -i 0 -n Blue
n -t * -a 0 -s 0 -S UP -v circle -c black -i black
n -t * -a 1 -s 1 -S UP -v circle -c black -i black
n -t * -a 2 -s 2 -S UP -v circle -c black -i black
l -t * -s 0 -d 1 -S UP -r 10000000 -D 0.01 -c black -o right-up
l -t * -s 1 -d 2 -S UP -r 800000 -D 0.050000000000000003 -c black -o right-down
q -t * -s 2 -d 1 -a 0.5
q -t * -s 1 -d 2 -a 0.5
+ -t 0 -s 0 -d 1 -p tcp -e 40 -c 0 -i 0 -a 0 -x {0.0 2.0 0 ------- null}
- -t 0 -s 0 -d 1 -p tcp -e 40 -c 0 -i 0 -a 0 -x {0.0 2.0 0 ------- null}
h -t 0 -s 0 -d 1 -p tcp -e 40 -c 0 -i 0 -a 0 -x {0.0 2.0 -1 ------- null}
r -t 0.010032 -s 0 -d 1 -p tcp -e 40 -c 0 -i 0 -a 0 -x {0.0 2.0 0 ------- null}
+ -t 0.010032 -s 1 -d 2 -p tcp -e 40 -c 0 -i 0 -a 0 -x {0.0 2.0 0 ------- null}
- -t 0.010032 -s 1 -d 2 -p tcp -e 40 -c 0 -i 0 -a 0 -x {0.0 2.0 0 ------- null}
h -t 0.010032 -s 1 -d 2 -p tcp -e 40 -c 0 -i 0 -a 0 -x {0.0 2.0 -1 ------- null}
r -t 0.060432 -s 1 -d 2 -p tcp -e 40 -c 0 -i 0 -a 0 -x {0.0 2.0 0 ------- null}
+ -t 0.060432 -s 2 -d 1 -p ack -e 40 -c 0 -i 1 -a 0 -x {2.0 0.0 0 ------- null}
- -t 0.060432 -s 2 -d 1 -p ack -e 40 -c 0 -i 1 -a 0 -x {2.0 0.0 0 ------- null}
h -t 0.060432 -s 2 -d 1 -p ack -e 40 -c 0 -i 1 -a 0 -x {2.0 0.0 -1 ------- null}
r -t 0.110832 -s 2 -d 1 -p ack -e 40 -c 0 -i 1 -a 0 -x {2.0 0.0 0 ------- null}
+ -t 0.110832 -s 1 -d 0 -p ack -e 40 -c 0 -i 1 -a 0 -x {2.0 0.0 0 ------- null}
- -t 0.110832 -s 1 -d 0 -p ack -e 40 -c 0 -i 1 -a 0 -x {2.0 0.0 0 ------- null}
h -t 0.110832 -s 1 -d 0 -p ack -e 40 -c 0 -i 1 -a 0 -x {2.0 0.0 -1 ------- null}
r -t 0.120864 -s 1 -d 0 -p ack -e 40 -c 0 -i 1 -a 0 -x {2.0 0.0 0 ------- null}
+ -t 0.120864 -s 0 -d 1 -p tcp -e 1000 -c 0 -i 2 -a 0 -x {0.0 2.0 1 ------- null}
- -t 0.120864 -s 0 -d 1 -p tcp -e 1000 -c 0 -i 2 -a 0 -x {0.0 2.0 1 ------- null}
h -t 0.120864 -s 0 -d 1 -p tcp -e 1000 -c 0 -i 2 -a 0 -x {0.0 2.0 -1 ------- null}
+ -t 0.120864 -s 0 -d 1 -p tcp -e 1000 -c 0 -i 3 -a 0 -x {0.0 2.0 2 ------- null}
- -t 0.121664 -s 0 -d 1 -p tcp -e 1000 -c 0 -i 3 -a 0 -x {0.0 2.0 2 ------- null}
h -t 0.121664 -s 0 -d 1 -p tcp -e 1000 -c 0 -i 3 -a 0 -x {0.0 2.0 -1 ------- null}
r -t 0.131664 -s 0 -d 1 -p tcp -e 1000 -c 0 -i 2 -a 0 -x {0.0 2.0 1 ------- null}
+ -t 0.131664 -s 1 -d 2 -p tcp -e 1000 -c 0 -i 2 -a 0 -x {0.0 2.0 1 ------- null}
- -t 0.131664 -s 1 -d 2 -p tcp -e 1000 -c 0 -i 2 -a 0 -x {0.0 2.0 1 ------- null}
h -t 0.131664 -s 1 -d 2 -p tcp -e 1000 -c 0 -i 2 -a 0 -x {0.0 2.0 -1 ------- null}
r -t 0.132464 -s 0 -d 1 -p tcp -e 1000 -c 0 -i 3 -a 0 -x {0.0 2.0 2 ------- null}
+ -t 0.132464 -s 1 -d 2 -p tcp -e 1000 -c 0 -i 3 -a 0 -x {0.0 2.0 2 ------- null}
- -t 0.141664 -s 1 -d 2 -p tcp -e 1000 -c 0 -i 3 -a 0 -x {0.0 2.0 2 ------- null}
h -t 0.141664 -s 1 -d 2 -p tcp -e 1000 -c 0 -i 3 -a 0 -x {0.0 2.0 -1 ------- null}
r -t 0.191664 -s 1 -d 2 -p tcp -e 1000 -c 0 -i 2 -a 0 -x {0.0 2.0 1 ------- null}
+ -t 0.191664 -s 2 -d 1 -p ack -e 40 -c 0 -i 4 -a 0 -x {2.0 0.0 1 ------- null}
- -t 0.191664 -s 2 -d 1 -p ack -e 40 -c 0 -i 4 -a 0 -x {2.0 0.0 1 ------- null}
h -t 0.191664 -s 2 -d 1 -p ack -e 40 -c 0 -i 4 -a 0 -x {2.0 0.0 -1 ------- null}
r -t 0.201664 -s 1 -d 2 -p tcp -e 1000 -c 0 -i 3 -a 0 -x {0.0 2.0 2 ------- null}
+ -t 0.201664 -s 2 -d 1 -p ack -e 40 -c 0 -i 5 -a 0 -x {2.0 0.0 2 ------- null}
- -t 0.201664 -s 2 -d 1 -p ack -e 40 -c 0 -i 5 -a 0 -x {2.0 0.0 2 ------- null}
h -t 0.201664 -s 2 -d 1 -p ack -e 40 -c 0 -i 5 -a 0 -x {2.0 0.0 -1 ------- null}
r -t 0.242064 -s 2 -d 1 -p ack -e 40 -c 0 -i 4 -a 0 -x {2.0 0.0 1 ------- null}
+ -t 0.242064 -s 1 -d 0 -p ack -e 40 -c 0 -i 4 -a 0 -x {2.0 0.0 1 ------- null}
- -t 0.242064 -s 1 -d 0 -p ack -e 40 -c 0 -i 4 -a 0 -x {2.0 0.0 1 ------- null}
h -t 0.242064 -s 1 -d 0 -p ack -e 40 -c 0 -i 4 -a 0 -x {2.0 0.0 -1 ------- null}
r -t 0.252064 -s 2 -d 1 -p ack -e 40 -c 0 -i 5 -a 0 -x {2.0 0.0 2 ------- null}
+ -t 0.252064 -s 1 -d 0 -p ack -e 40 -c 0 -i 5 -a 0 -x {2.0 0.0 2 ------- null}
- -t 0.252064 -s 1 -d 0 -p ack -e 40 -c 0 -i 5 -a 0 -x {2.0 0.0 2 ------- null}
h -t 0.252064 -s 1 -d 0 -p ack -e 40 -c 0 -i 5 -a 0 -x {2.0 0.0 -1 ------- null}
r -t 0.252096 -s 1 -d 0 -p ack -e 40 -c 0 -i 4 -a 0 -x {2.0 0.0 1 ------- null}
+ -t 0.252096 -s 0 -d 1 -p tcp -e 1000 -c 0 -i 6 -a 0 -x {0.0 2.0 3 ------- null}
- -t 0.252096 -s 0 -d 1 -p tcp -e 1000 -c 0 -i 6 -a 0 -x {0.0 2.0 3 ------- null}
h -t 0.252096 -s 0 -d 1 -p tcp -e 1000 -c 0 -i 6 -a 0 -x {0.0 2.0 -1 ------- null}
+ -t 0.252096 -s 0 -d 1 -p tcp -e 1000 -c 0 -i 7 -a 0 -x {0.0 2.0 4 ------- null}
- -t 0.252896 -s 0 -d 1 -p tcp -e 1000 -c 0 -i 7 -a 0 -x {0.0 2.0 4 ------- null}
h -t 0.252896 -s 0 -d 1 -p tcp -e 1000 -c 0 -i 7 -a 0 -x {0.0 2.0 -1 ------- null}
r -t 0.262096 -s 1 -d 0 -p ack -e 40 -c 0 -i 5 -a 0 -x {2.0 0.0 2 ------- null}
+ -t 0.262096 -s 0 -d 1 -p tcp -e 1000 -c 0 -i 8 -a 0 -x {0.0 2.0 5 ------- null}
- -t 0.262096 -s 0 -d 1 -p tcp -e 1000 -c 0 -i 8 -a 0 -x {0.0 2.0 5 ------- null}
h -t 0.262096 -s 0 -d 1 -p tcp -e 1000 -c 0 -i 8 -a 0 -x {0.0 2.0 -1 ------- null}
+ -t 0.262096 -s 0 -d 1 -p tcp -e 1000 -c 0 -i 9 -a 0 -x {0.0 2.0 6 ------- null}
r -t 0.262896 -s 0 -d 1 -p tcp -e 1000 -c 0 -i 6 -a 0 -x {0.0 2.0 3 ------- null}
+ -t 0.262896 -s 1 -d 2 -p tcp -e 1000 -c 0 -i 6 -a 0 -x {0.0 2.0 3 ------- null}
- -t 0.262896 -s 1 -d 2 -p tcp -e 1000 -c 0 -i 6 -a 0 -x {0.0 2.0 3 ------- null}
h -t 0.262896 -s 1 -d 2 -p tcp -e 1000 -c 0 -i 6 -a 0 -x {0.0 2.0 -1 ------- null}
- -t 0.262896 -s 0 -d 1 -p tcp -e 1000 -c 0 -i 9 -a 0 -x {0.0 2.0 6 ------- null}
h -t 0.262896 -s 0 -d 1 -p tcp -e 1000 -c 0 -i 9 -a 0 -x {0.0 2.0 -1 ------- null}
r -t 0.263696 -s 0 -d 1 -p tcp -e 1000 -c 0 -i 7 -a 0 -x {0.0 2.0 4 ------- null}
+ -t 0.263696 -s 1 -d 2 -p tcp -e 1000 -c 0 -i 7 -a 0 -x {0.0 2.0 4 ------- null}
r -t 0.272896 -s 0 -d 1 -p tcp -e 1000 -c 0 -i 8 -a 0 -x {0.0 2.0 5 ------- null}
+ -t 0.272896 -s 1 -d 2 -p tcp -e 1000 -c 0 -i 8 -a 0 -x {0.0 2.0 5 ------- null}
- -t 0.272896 -s 1 -d 2 -p tcp -e 1000 -c 0 -i 7 -a 0 -x {0.0 2.0 4 ------- null}
h -t 0.272896 -s 1 -d 2 -p tcp -e 1000 -c 0 -i 7 -a 0 -x {0.0 2.0 -1 ------- null}
r -t 0.273696 -s 0 -d 1 -p tcp -e 1000 -c 0 -i 9 -a 0 -x {0.0 2.0 6 ------- null}
+ -t 0.273696 -s 1 -d 2 -p tcp -e 1000 -c 0 -i 9 -a 0 -x {0.0 2.0 6 ------- null}
- -t 0.282896 -s 1 -d 2 -p tcp -e 1000 -c 0 -i 8 -a 0 -x {0.0 2.0 5 ------- null}
h -t 0.282896 -s 1 -d 2 -p tcp -e 1000 -c 0 -i 8 -a 0 -x {0.0 2.0 -1 ------- null}
- -t 0.292896 -s 1 -d 2 -p tcp -e 1000 -c 0 -i 9 -a 0 -x {0.0 2.0 6 ------- null}
h -t 0.292896 -s 1 -d 2 -p tcp -e 1000 -c 0 -i 9 -a 0 -x {0.0 2.0 -1 ------- null}
r -t 0.322896 -s 1 -d 2 -p tcp -e 1000 -c 0 -i 6 -a 0 -x {0.0 2.0 3 ------- null}
+ -t 0.322896 -s 2 -d 1 -p ack -e 40 -c 0 -i 10 -a 0 -x {2.0 0.0 3 ------- null}
- -t 0.322896 -s 2 -d 1 -p ack -e 40 -c 0 -i 10 -a 0 -x {2.0 0.0 3 ------- null}
h -t 0.322896 -s 2 -d 1 -p ack -e 40 -c 0 -i 10 -a 0 -x {2.0 0.0 -1 ------- null}
r -t 0.332896 -s 1 -d 2 -p tcp -e 1000 -c 0 -i 7 -a 0 -x {0.0 2.0 4 ------- null}
+ -t 0.332896 -s 2 -d 1 -p ack -e 40 -c 0 -i 11 -a 0 -x {2.0 0.0 4 ------- null}
- -t 0.332896 -s 2 -d 1 -p ack -e 40 -c 0 -i 11 -a 0 -x {2.0 0.0 4 ------- null}
h -t 0.332896 -s 2 -d 1 -p ack -e 40 -c 0 -i 11 -a 0 -x {2.0 0.0 -1 ------- null}
r -t 0.342896 -s 1 -d 2 -p tcp -e 1000 -c 0 -i 8 -a 0 -x {0.0 2.0 5 ------- null}
+ -t 0.342896 -s 2 -d 1 -p ack -e 40 -c 0 -i 12 -a 0 -x {2.0 0.0 5 ------- null}
- -t 0.342896 -s 2 -d 1 -p ack -e 40 -c 0 -i 12 -a 0 -x {2.0 0.0 5 ------- null}
h -t 0.342896 -s 2 -d 1 -p ack -e 40 -c 0 -i 12 -a 0 -x {2.0 0.0 -1 ------- null}
r -t 0.352896 -s 1 -d 2 -p tcp -e 1000 -c 0 -i 9 -a 0 -x {0.0 2.0 6 ------- null}
+ -t 0.352896 -s 2 -d 1 -p ack -e 40 -c 0 -i 13 -a 0 -x {2.0 0.0 6 ------- null}
- -t 0.352896 -s 2 -d 1 -p ack -e 40 -c 0 -i 13 -a 0 -x {2.0 0.0 6 ------- null}
h -t 0.352896 -s 2 -d 1 -p ack -e 40 -c 0 -i 13 -a 0 -x {2.0 0.0 -1 ------- null}
r -t 0.373296 -s 2 -d 1 -p ack -e 40 -c 0 -i 10 -a 0 -x {2.0 0.0 3 ------- null}
+ -t 0.373296 -s 1 -d 0 -p ack -e 40 -c 0 -i 10 -a 0 -x {2.0 0.0 3 ------- null}
- -t 0.373296 -s 1 -d 0 -p ack -e 40 -c 0 -i 10 -a 0 -x {2.0 0.0 3 ------- null}
h -t 0.373296 -s 1 -d 0 -p ack -e 40 -c 0 -i 10 -a 0 -x {2.0 0.0 -1 ------- null}
r -t 0.383296 -s 2 -d 1 -p ack -e 40 -c 0 -i 11 -a 0 -x {2.0 0.0 4 ------- null}
+ -t 0.383296 -s 1 -d 0 -p ack -e 40 -c 0 -i 11 -a 0 -x {2.0 0.0 4 ------- null}
- -t 0.383296 -s 1 -d 0 -p ack -e 40 -c 0 -i 11 -a 0 -x {2.0 0.0 4 ------- null}
h -t 0.383296 -s 1 -d 0 -p ack -e 40 -c 0 -i 11 -a 0 -x {2.0 0.0 -1 ------- null}
r -t 0.383328 -s 1 -d 0 -p ack -e 40 -c 0 -i 10 -a 0 -x {2.0 0.0 3 ------- null}
+ -t 0.383328 -s 0 -d 1 -p tcp -e 1000 -c 0 -i 14 -a 0 -x {0.0 2.0 7 ------- null}
- -t 0.383328 -s 0 -d 1 -p tcp -e 1000 -c 0 -i 14 -a 0 -x {0.0 2.0 7 ------- null}
h -t 0.383328 -s 0 -d 1 -p tcp -e 1000 -c 0 -i 14 -a 0 -x {0.0 2.0 -1 ------- null}
+ -t 0.383328 -s 0 -d 1 -p tcp -e 1000 -c 0 -i 15 -a 0 -x {0.0 2.0 8 ------- null}
- -t 0.384128 -s 0 -d 1 -p tcp -e 1000 -c 0 -i 15 -a 0 -x {0.0 2.0 8 ------- null}
h -t 0.384128 -s 0 -d 1 -p tcp -e 1000 -c 0 -i 15 -a 0 -x {0.0 2.0 -1 ------- null}
r -t 0.393296 -s 2 -d 1 -p ack -e 40 -c 0 -i 12 -a 0 -x {2.0 0.0 5 ------- null}
+ -t 0.393296 -s 1 -d 0 -p ack -e 40 -c 0 -i 12 -a 0 -x {2.0 0.0 5 ------- null}
- -t 0.393296 -s 1 -d 0 -p ack -e 40 -c 0 -i 12 -a 0 -x {2.0 0.0 5 ------- null}
h -t 0.393296 -s 1 -d 0 -p ack -e 40 -c 0 -i 12 -a 0 -x {2.0 0.0 -1 ------- null}
r -t 0.393328 -s 1 -d 0 -p ack -e 40 -c 0 -i 11 -a 0 -x {2.0 0.0 4 ------- null}
+ -t 0.393328 -s 0 -d 1 -p tcp -e 1000 -c 0 -i 16 -a 0 -x {0.0 2.0 9 ------- null}
- -t 0.393328 -s 0 -d 1 -p tcp -e 1000 -c 0 -i 16 -a 0 -x {0.0 2.0 9 ------- null}
h -t 0.393328 -s 0 -d 1 -p tcp -e 1000 -c 0 -i 16 -a 0 -x {0.0 2.0 -1 ------- null}
+ -t 0.393328 -s 0 -d 1 -p tcp -e 1000 -c 0 -i 17 -a 0 -x {0.0 2.0 10 ------- null}
r -t 0.394128 -s 0 -d 1 -p tcp -e 1000 -c 0 -i 14 -a 0 -x {0.0 2.0 7 ------- null}
+ -t 0.394128 -s 1 -d 2 -p tcp -e 1000 -c 0 -i 14 -a 0 -x {0.0 2.0 7 ------- null}
- -t 0.394128 -s 1 -d 2 -p tcp -e 1000 -c 0 -i 14 -a 0 -x {0.0 2.0 7 ------- null}
h -t 0.394128 -s 1 -d 2 -p tcp -e 1000 -c 0 -i 14 -a 0 -x {0.0 2.0 -1 ------- null}
- -t 0.394128 -s 0 -d 1 -p tcp -e 1000 -c 0 -i 17 -a 0 -x {0.0 2.0 10 ------- null}
h -t 0.394128 -s 0 -d 1 -p tcp -e 1000 -c 0 -i 17 -a 0 -x {0.0 2.0 -1 ------- null}
r -t 0.394928 -s 0 -d 1 -p tcp -e 1000 -c 0 -i 15 -a 0 -x {0.0 2.0 8 ------- null}
+ -t 0.394928 -s 1 -d 2 -p tcp -e 1000 -c 0 -i 15 -a 0 -x {0.0 2.0 8 ------- null}
r -t 0.403296 -s 2 -d 1 -p ack -e 40 -c 0 -i 13 -a 0 -x {2.0 0.0 6 ------- null}
+ -t 0.403296 -s 1 -d 0 -p ack -e 40 -c 0 -i 13 -a 0 -x {2.0 0.0 6 ------- null}
- -t 0.403296 -s 1 -d 0 -p ack -e 40 -c 0 -i 13 -a 0 -x {2.0 0.0 6 ------- null}
h -t 0.403296 -s 1 -d 0 -p ack -e 40 -c 0 -i 13 -a 0 -x {2.0 0.0 -1 ------- null}
r -t 0.403328 -s 1 -d 0 -p ack -e 40 -c 0 -i 12 -a 0 -x {2.0 0.0 5 ------- null}
+ -t 0.403328 -s 0 -d 1 -p tcp -e 1000 -c 0 -i 18 -a 0 -x {0.0 2.0 11 ------- null}
- -t 0.403328 -s 0 -d 1 -p tcp -e 1000 -c 0 -i 18 -a 0 -x {0.0 2.0 11 ------- null}
h -t 0.403328 -s 0 -d 1 -p tcp -e 1000 -c 0 -i 18 -a 0 -x {0.0 2.0 -1 ------- null}
+ -t 0.403328 -s 0 -d 1 -p tcp -e 1000 -c 0 -i 19 -a 0 -x {0.0 2.0 12 ------- null}
r -t 0.404128 -s 0 -d 1 -p tcp -e 1000 -c 0 -i 16 -a 0 -x {0.0 2.0 9 ------- null}
+ -t 0.404128 -s 1 -d 2 -p tcp -e 1000 -c 0 -i 16 -a 0 -x {0.0 2.0 9 ------- null}
- -t 0.404128 -s 1 -d 2 -p tcp -e 1000 -c 0 -i 15 -a 0 -x {0.0 2.0 8 ------- null}
h -t 0.404128 -s 1 -d 2 -p tcp -e 1000 -c 0 -i 15 -a 0 -x {0.0 2.0 -1 ------- null}
- -t 0.404128 -s 0 -d 1 -p tcp -e 1000 -c 0 -i 19 -a 0 -x {0.0 2.0 12 ------- null}
h -t 0.404128 -s 0 -d 1 -p tcp -e 1000 -c 0 -i 19 -a 0 -x {0.0 2.0 -1 ------- null}
r -t 0.404928 -s 0 -d 1 -p tcp -e 1000 -c 0 -i 17 -a 0 -x {0.0 2.0 10 ------- null}
+ -t 0.404928 -s 1 -d 2 -p tcp -e 1000 -c 0 -i 17 -a 0 -x {0.0 2.0 10 ------- null}
r -t 0.413328 -s 1 -d 0 -p ack -e 40 -c 0 -i 13 -a 0 -x {2.0 0.0 6 ------- null}
+ -t 0.413328 -s 0 -d 1 -p tcp -e 1000 -c 0 -i 20 -a 0 -x {0.0 2.0 13 ------- null}
- -t 0.413328 -s 0 -d 1 -p tcp -e 1000 -c 0 -i 20 -a 0 -x {0.0 2.0 13 ------- null}
h -t 0.413328 -s 0 -d 1 -p tcp -e 1000 -c 0 -i 20 -a 0 -x {0.0 2.0 -1 ------- null}
+ -t 0.413328 -s 0 -d 1 -p tcp -e 1000 -c 0 -i 21 -a 0 -x {0.0 2.0 14 ------- null}
r -t 0.414128 -s 0 -d 1 -p tcp -e 1000 -c 0 -i 18 -a 0 -x {0.0 2.0 11 ------- null}
+ -t 0.414128 -s 1 -d 2 -p tcp -e 1000 -c 0 -i 18 -a 0 -x {0.0 2.0 11 ------- null}
- -t 0.414128 -s 1 -d 2 -p tcp -e 1000 -c 0 -i 16 -a 0 -x {0.0 2.0 9 ------- null}
h -t 0.414128 -s 1 -d 2 -p tcp -e 1000 -c 0 -i 16 -a 0 -x {0.0 2.0 -1 ------- null}
- -t 0.414128 -s 0 -d 1 -p tcp -e 1000 -c 0 -i 21 -a 0 -x {0.0 2.0 14 ------- null}
h -t 0.414128 -s 0 -d 1 -p tcp -e 1000 -c 0 -i 21 -a 0 -x {0.0 2.0 -1 ------- null}
r -t 0.414928 -s 0 -d 1 -p tcp -e 1000 -c 0 -i 19 -a 0 -x {0.0 2.0 12 ------- null}
+ -t 0.414928 -s 1 -d 2 -p tcp -e 1000 -c 0 -i 19 -a 0 -x {0.0 2.0 12 ------- null}
r -t 0.424128 -s 0 -d 1 -p tcp -e 1000 -c 0 -i 20 -a 0 -x {0.0 2.0 13 ------- null}
+ -t 0.424128 -s 1 -d 2 -p tcp -e 1000 -c 0 -i 20 -a 0 -x {0.0 2.0 13 ------- null}
- -t 0.424128 -s 1 -d 2 -p tcp -e 1000 -c 0 -i 17 -a 0 -x {0.0 2.0 10 ------- null}
h -t 0.424128 -s 1 -d 2 -p tcp -e 1000 -c 0 -i 17 -a 0 -x {0.0 2.0 -1 ------- null}
r -t 0.424928 -s 0 -d 1 -p tcp -e 1000 -c 0 -i 21 -a 0 -x {0.0 2.0 14 ------- null}
+ -t 0.424928 -s 1 -d 2 -p tcp -e 1000 -c 0 -i 21 -a 0 -x {0.0 2.0 14 ------- null}
- -t 0.434128 -s 1 -d 2 -p tcp -e 1000 -c 0 -i 18 -a 0 -x {0.0 2.0 11 ------- null}
h -t 0.434128 -s 1 -d 2 -p tcp -e 1000 -c 0 -i 18 -a 0 -x {0.0 2.0 -1 ------- null}
- -t 0.444128 -s 1 -d 2 -p tcp -e 1000 -c 0 -i 19 -a 0 -x {0.0 2.0 12 ------- null}
h -t 0.444128 -s 1 -d 2 -p tcp -e 1000 -c 0 -i 19 -a 0 -x {0.0 2.0 -1 ------- null}
r -t 0.454128 -s 1 -d 2 -p tcp -e 1000 -c 0 -i 14 -a 0 -x {0.0 2.0 7 ------- null}
+ -t 0.454128 -s 2 -d 1 -p ack -e 40 -c 0 -i 22 -a 0 -x {2.0 0.0 7 ------- null}
- -t 0.454128 -s 2 -d 1 -p ack -e 40 -c 0 -i 22 -a 0 -x {2.0 0.0 7 ------- null}
h -t 0.454128 -s 2 -d 1 -p ack -e 40 -c 0 -i 22 -a 0 -x {2.0 0.0 -1 ------- null}
- -t 0.454128 -s 1 -d 2 -p tcp -e 1000 -c 0 -i 20 -a 0 -x {0.0 2.0 13 ------- null}
h -t 0.454128 -s 1 -d 2 -p tcp -e 1000 -c 0 -i 20 -a 0 -x {0.0 2.0 -1 ------- null}
r -t 0.464128 -s 1 -d 2 -p tcp -e 1000 -c 0 -i 15 -a 0 -x {0.0 2.0 8 ------- null}
+ -t 0.464128 -s 2 -d 1 -p ack -e 40 -c 0 -i 23 -a 0 -x {2.0 0.0 8 ------- null}
- -t 0.464128 -s 2 -d 1 -p ack -e 40 -c 0 -i 23 -a 0 -x {2.0 0.0 8 ------- null}
h -t 0.464128 -s 2 -d 1 -p ack -e 40 -c 0 -i 23 -a 0 -x {2.0 0.0 -1 ------- null}
- -t 0.464128 -s 1 -d 2 -p tcp -e 1000 -c 0 -i 21 -a 0 -x {0.0 2.0 14 ------- null}
h -t 0.464128 -s 1 -d 2 -p tcp -e 1000 -c 0 -i 21 -a 0 -x {0.0 2.0 -1 ------- null}
r -t 0.474128 -s 1 -d 2 -p tcp -e 1000 -c 0 -i 16 -a 0 -x {0.0 2.0 9 ------- null}
+ -t 0.474128 -s 2 -d 1 -p ack -e 40 -c 0 -i 24 -a 0 -x {2.0 0.0 9 ------- null}
- -t 0.474128 -s 2 -d 1 -p ack -e 40 -c 0 -i 24 -a 0 -x {2.0 0.0 9 ------- null}
h -t 0.474128 -s 2 -d 1 -p ack -e 40 -c 0 -i 24 -a 0 -x {2.0 0.0 -1 ------- null}
r -t 0.484128 -s 1 -d 2 -p tcp -e 1000 -c 0 -i 17 -a 0 -x {0.0 2.0 10 ------- null}
+ -t 0.484128 -s 2 -d 1 -p ack -e 40 -c 0 -i 25 -a 0 -x {2.0 0.0 10 ------- null}
- -t 0.484128 -s 2 -d 1 -p ack -e 40 -c 0 -i 25 -a 0 -x {2.0 0.0 10 ------- null}
h -t 0.484128 -s 2 -d 1 -p ack -e 40 -c 0 -i 25 -a 0 -x {2.0 0.0 -1 ------- null}
r -t 0.494128 -s 1 -d 2 -p tcp -e 1000 -c 0 -i 18 -a 0 -x {0.0 2.0 11 ------- null}
+ -t 0.494128 -s 2 -d 1 -p ack -e 40 -c 0 -i 26 -a 0 -x {2.0 0.0 11 ------- null}
- -t 0.494128 -s 2 -d 1 -p ack -e 40 -c 0 -i 26 -a 0 -x {2.0 0.0 11 ------- null}
h -t 0.494128 -s 2 -d 1 -p ack -e 40 -c 0 -i 26 -a 0 -x {2.0 0.0 -1 ------- null}
r -t 0.504128 -s 1 -d 2 -p tcp -e 1000 -c 0 -i 19 -a 0 -x {0.0 2.0 12 ------- null}
+ -t 0.504128 -s 2 -d 1 -p ack -e 40 -c 0 -i 27 -a 0 -x {2.0 0.0 12 ------- null}
- -t 0.504128 -s 2 -d 1 -p ack -e 40 -c 0 -i 27 -a 0 -x {2.0 0.0 12 ------- null}
h -t 0.504128 -s 2 -d 1 -p ack -e 40 -c 0 -i 27 -a 0 -x {2.0 0.0 -1 ------- null}
r -t 0.504528 -s 2 -d 1 -p ack -e 40 -c 0 -i 22 -a 0 -x {2.0 0.0 7 ------- null}
+ -t 0.504528 -s 1 -d 0 -p ack -e 40 -c 0 -i 22 -a 0 -x {2.0 0.0 7 ------- null}
- -t 0.504528 -s 1 -d 0 -p ack -e 40 -c 0 -i 22 -a 0 -x {2.0 0.0 7 ------- null}
h -t 0.504528 -s 1 -d 0 -p ack -e 40 -c 0 -i 22 -a 0 -x {2.0 0.0 -1 ------- null}
r -t 0.514128 -s 1 -d 2 -p tcp -e 1000 -c 0 -i 20 -a 0 -x {0.0 2.0 13 ------- null}
+ -t 0.514128 -s 2 -d 1 -p ack -e 40 -c 0 -i 28 -a 0 -x {2.0 0.0 13 ------- null}
- -t 0.514128 -s 2 -d 1 -p ack -e 40 -c 0 -i 28 -a 0 -x {2.0 0.0 13 ------- null}
h -t 0.514128 -s 2 -d 1 -p ack -e 40 -c 0 -i 28 -a 0 -x {2.0 0.0 -1 ------- null}
r -t 0.514528 -s 2 -d 1 -p ack -e 40 -c 0 -i 23 -a 0 -x {2.0 0.0 8 ------- null}
+ -t 0.514528 -s 1 -d 0 -p ack -e 40 -c 0 -i 23 -a 0 -x {2.0 0.0 8 ------- null}
- -t 0.514528 -s 1 -d 0 -p ack -e 40 -c 0 -i 23 -a 0 -x {2.0 0.0 8 ------- null}
h -t 0.514528 -s 1 -d 0 -p ack -e 40 -c 0 -i 23 -a 0 -x {2.0 0.0 -1 ------- null}
r -t 0.51456 -s 1 -d 0 -p ack -e 40 -c 0 -i 22 -a 0 -x {2.0 0.0 7 ------- null}
+ -t 0.51456 -s 0 -d 1 -p tcp -e 1000 -c 0 -i 29 -a 0 -x {0.0 2.0 15 ------- null}
- -t 0.51456 -s 0 -d 1 -p tcp -e 1000 -c 0 -i 29 -a 0 -x {0.0 2.0 15 ------- null}
h -t 0.51456 -s 0 -d 1 -p tcp -e 1000 -c 0 -i 29 -a 0 -x {0.0 2.0 -1 ------- null}
+ -t 0.51456 -s 0 -d 1 -p tcp -e 1000 -c 0 -i 30 -a 0 -x {0.0 2.0 16 ------- null}
- -t 0.51536 -s 0 -d 1 -p tcp -e 1000 -c 0 -i 30 -a 0 -x {0.0 2.0 16 ------- null}
h -t 0.51536 -s 0 -d 1 -p tcp -e 1000 -c 0 -i 30 -a 0 -x {0.0 2.0 -1 ------- null}
r -t 0.524128 -s 1 -d 2 -p tcp -e 1000 -c 0 -i 21 -a 0 -x {0.0 2.0 14 ------- null}
+ -t 0.524128 -s 2 -d 1 -p ack -e 40 -c 0 -i 31 -a 0 -x {2.0 0.0 14 ------- null}
- -t 0.524128 -s 2 -d 1 -p ack -e 40 -c 0 -i 31 -a 0 -x {2.0 0.0 14 ------- null}
h -t 0.524128 -s 2 -d 1 -p ack -e 40 -c 0 -i 31 -a 0 -x {2.0 0.0 -1 ------- null}
r -t 0.524528 -s 2 -d 1 -p ack -e 40 -c 0 -i 24 -a 0 -x {2.0 0.0 9 ------- null}
+ -t 0.524528 -s 1 -d 0 -p ack -e 40 -c 0 -i 24 -a 0 -x {2.0 0.0 9 ------- null}
- -t 0.524528 -s 1 -d 0 -p ack -e 40 -c 0 -i 24 -a 0 -x {2.0 0.0 9 ------- null}
h -t 0.524528 -s 1 -d 0 -p ack -e 40 -c 0 -i 24 -a 0 -x {2.0 0.0 -1 ------- null}
r -t 0.52456 -s 1 -d 0 -p ack -e 40 -c 0 -i 23 -a 0 -x {2.0 0.0 8 ------- null}
+ -t 0.52456 -s 0 -d 1 -p tcp -e 1000 -c 0 -i 32 -a 0 -x {0.0 2.0 17 ------- null}
- -t 0.52456 -s 0 -d 1 -p tcp -e 1000 -c 0 -i 32 -a 0 -x {0.0 2.0 17 ------- null}
h -t 0.52456 -s 0 -d 1 -p tcp -e 1000 -c 0 -i 32 -a 0 -x {0.0 2.0 -1 ------- null}
+ -t 0.52456 -s 0 -d 1 -p tcp -e 1000 -c 0 -i 33 -a 0 -x {0.0 2.0 18 ------- null}
r -t 0.52536 -s 0 -d 1 -p tcp -e 1000 -c 0 -i 29 -a 0 -x {0.0 2.0 15 ------- null}
+ -t 0.52536 -s 1 -d 2 -p tcp -e 1000 -c 0 -i 29 -a 0 -x {0.0 2.0 15 ------- null}
- -t 0.52536 -s 1 -d 2 -p tcp -e 1000 -c 0 -i 29 -a 0 -x {0.0 2.0 15 ------- null}
h -t 0.52536 -s 1 -d 2 -p tcp -e 1000 -c 0 -i 29 -a 0 -x {0.0 2.0 -1 ------- null}
- -t 0.52536 -s 0 -d 1 -p tcp -e 1000 -c 0 -i 33 -a 0 -x {0.0 2.0 18 ------- null}
h -t 0.52536 -s 0 -d 1 -p tcp -e 1000 -c 0 -i 33 -a 0 -x {0.0 2.0 -1 ------- null}
r -t 0.52616 -s 0 -d 1 -p tcp -e 1000 -c 0 -i 30 -a 0 -x {0.0 2.0 16 ------- null}
+ -t 0.52616 -s 1 -d 2 -p tcp -e 1000 -c 0 -i 30 -a 0 -x {0.0 2.0 16 ------- null}
r -t 0.534528 -s 2 -d 1 -p ack -e 40 -c 0 -i 25 -a 0 -x {2.0 0.0 10 ------- null}
+ -t 0.534528 -s 1 -d 0 -p ack -e 40 -c 0 -i 25 -a 0 -x {2.0 0.0 10 ------- null}
- -t 0.534528 -s 1 -d 0 -p ack -e 40 -c 0 -i 25 -a 0 -x {2.0 0.0 10 ------- null}
h -t 0.534528 -s 1 -d 0 -p ack -e 40 -c 0 -i 25 -a 0 -x {2.0 0.0 -1 ------- null}
r -t 0.53456 -s 1 -d 0 -p ack -e 40 -c 0 -i 24 -a 0 -x {2.0 0.0 9 ------- null}
+ -t 0.53456 -s 0 -d 1 -p tcp -e 1000 -c 0 -i 34 -a 0 -x {0.0 2.0 19 ------- null}
- -t 0.53456 -s 0 -d 1 -p tcp -e 1000 -c 0 -i 34 -a 0 -x {0.0 2.0 19 ------- null}
h -t 0.53456 -s 0 -d 1 -p tcp -e 1000 -c 0 -i 34 -a 0 -x {0.0 2.0 -1 ------- null}
+ -t 0.53456 -s 0 -d 1 -p tcp -e 1000 -c 0 -i 35 -a 0 -x {0.0 2.0 20 ------- null}
r -t 0.53536 -s 0 -d 1 -p tcp -e 1000 -c 0 -i 32 -a 0 -x {0.0 2.0 17 ------- null}
+ -t 0.53536 -s 1 -d 2 -p tcp -e 1000 -c 0 -i 32 -a 0 -x {0.0 2.0 17 ------- null}
- -t 0.53536 -s 1 -d 2 -p tcp -e 1000 -c 0 -i 30 -a 0 -x {0.0 2.0 16 ------- null}
h -t 0.53536 -s 1 -d 2 -p tcp -e 1000 -c 0 -i 30 -a 0 -x {0.0 2.0 -1 ------- null}
- -t 0.53536 -s 0 -d 1 -p tcp -e 1000 -c 0 -i 35 -a 0 -x {0.0 2.0 20 ------- null}
h -t 0.53536 -s 0 -d 1 -p tcp -e 1000 -c 0 -i 35 -a 0 -x {0.0 2.0 -1 ------- null}
r -t 0.53616 -s 0 -d 1 -p tcp -e 1000 -c 0 -i 33 -a 0 -x {0.0 2.0 18 ------- null}
+ -t 0.53616 -s 1 -d 2 -p tcp -e 1000 -c 0 -i 33 -a 0 -x {0.0 2.0 18 ------- null}
r -t 0.544528 -s 2 -d 1 -p ack -e 40 -c 0 -i 26 -a 0 -x {2.0 0.0 11 ------- null}
+ -t 0.544528 -s 1 -d 0 -p ack -e 40 -c 0 -i 26 -a 0 -x {2.0 0.0 11 ------- null}
- -t 0.544528 -s 1 -d 0 -p ack -e 40 -c 0 -i 26 -a 0 -x {2.0 0.0 11 ------- null}
h -t 0.544528 -s 1 -d 0 -p ack -e 40 -c 0 -i 26 -a 0 -x {2.0 0.0 -1 ------- null}
r -t 0.54456 -s 1 -d 0 -p ack -e 40 -c 0 -i 25 -a 0 -x {2.0 0.0 10 ------- null}
+ -t 0.54456 -s 0 -d 1 -p tcp -e 1000 -c 0 -i 36 -a 0 -x {0.0 2.0 21 ------- null}
- -t 0.54456 -s 0 -d 1 -p tcp -e 1000 -c 0 -i 36 -a 0 -x {0.0 2.0 21 ------- null}
h -t 0.54456 -s 0 -d 1 -p tcp -e 1000 -c 0 -i 36 -a 0 -x {0.0 2.0 -1 ------- null}
+ -t 0.54456 -s 0 -d 1 -p tcp -e 1000 -c 0 -i 37 -a 0 -x {0.0 2.0 22 ------- null}
r -t 0.54536 -s 0 -d 1 -p tcp -e 1000 -c 0 -i 34 -a 0 -x {0.0 2.0 19 ------- null}
+ -t 0.54536 -s 1 -d 2 -p tcp -e 1000 -c 0 -i 34 -a 0 -x {0.0 2.0 19 ------- null}
- -t 0.54536 -s 1 -d 2 -p tcp -e 1000 -c 0 -i 32 -a 0 -x {0.0 2.0 17 ------- null}
h -t 0.54536 -s 1 -d 2 -p tcp -e 1000 -c 0 -i 32 -a 0 -x {0.0 2.0 -1 ------- null}
- -t 0.54536 -s 0 -d 1 -p tcp -e 1000 -c 0 -i 37 -a 0 -x {0.0 2.0 22 ------- null}
h -t 0.54536 -s 0 -d 1 -p tcp -e 1000 -c 0 -i 37 -a 0 -x {0.0 2.0 -1 ------- null}
r -t 0.54616 -s 0 -d 1 -p tcp -e 1000 -c 0 -i 35 -a 0 -x {0.0 2.0 20 ------- null}
+ -t 0.54616 -s 1 -d 2 -p tcp -e 1000 -c 0 -i 35 -a 0 -x {0.0 2.0 20 ------- null}
r -t 0.554528 -s 2 -d 1 -p ack -e 40 -c 0 -i 27 -a 0 -x {2.0 0.0 12 ------- null}
+ -t 0.554528 -s 1 -d 0 -p ack -e 40 -c 0 -i 27 -a 0 -x {2.0 0.0 12 ------- null}
- -t 0.554528 -s 1 -d 0 -p ack -e 40 -c 0 -i 27 -a 0 -x {2.0 0.0 12 ------- null}
h -t 0.554528 -s 1 -d 0 -p ack -e 40 -c 0 -i 27 -a 0 -x {2.0 0.0 -1 ------- null}
r -t 0.55456 -s 1 -d 0 -p ack -e 40 -c 0 -i 26 -a 0 -x {2.0 0.0 11 ------- null}
+ -t 0.55456 -s 0 -d 1 -p tcp -e 1000 -c 0 -i 38 -a 0 -x {0.0 2.0 23 ------- null}
- -t 0.55456 -s 0 -d 1 -p tcp -e 1000 -c 0 -i 38 -a 0 -x {0.0 2.0 23 ------- null}
h -t 0.55456 -s 0 -d 1 -p tcp -e 1000 -c 0 -i 38 -a 0 -x {0.0 2.0 -1 ------- null}
+ -t 0.55456 -s 0 -d 1 -p tcp -e 1000 -c 0 -i 39 -a 0 -x {0.0 2.0 24 ------- null}
r -t 0.55536 -s 0 -d 1 -p tcp -e 1000 -c 0 -i 36 -a 0 -x {0.0 2.0 21 ------- null}
+ -t 0.55536 -s 1 -d 2 -p tcp -e 1000 -c 0 -i 36 -a 0 -x {0.0 2.0 21 ------- null}
- -t 0.55536 -s 1 -d 2 -p tcp -e 1000 -c 0 -i 33 -a 0 -x {0.0 2.0 18 ------- null}
h -t 0.55536 -s 1 -d 2 -p tcp -e 1000 -c 0 -i 33 -a 0 -x {0.0 2.0 -1 ------- null}
- -t 0.55536 -s 0 -d 1 -p tcp -e 1000 -c 0 -i 39 -a 0 -x {0.0 2.0 24 ------- null}
h -t 0.55536 -s 0 -d 1 -p tcp -e 1000 -c 0 -i 39 -a 0 -x {0.0 2.0 -1 ------- null}
r -t 0.55616 -s 0 -d 1 -p tcp -e 1000 -c 0 -i 37 -a 0 -x {0.0 2.0 22 ------- null}
+ -t 0.55616 -s 1 -d 2 -p tcp -e 1000 -c 0 -i 37 -a 0 -x {0.0 2.0 22 ------- null}
r -t 0.564528 -s 2 -d 1 -p ack -e 40 -c 0 -i 28 -a 0 -x {2.0 0.0 13 ------- null}
+ -t 0.564528 -s 1 -d 0 -p ack -e 40 -c 0 -i 28 -a 0 -x {2.0 0.0 13 ------- null}
- -t 0.564528 -s 1 -d 0 -p ack -e 40 -c 0 -i 28 -a 0 -x {2.0 0.0 13 ------- null}
h -t 0.564528 -s 1 -d 0 -p ack -e 40 -c 0 -i 28 -a 0 -x {2.0 0.0 -1 ------- null}
r -t 0.56456 -s 1 -d 0 -p ack -e 40 -c 0 -i 27 -a 0 -x {2.0 0.0 12 ------- null}
+ -t 0.56456 -s 0 -d 1 -p tcp -e 1000 -c 0 -i 40 -a 0 -x {0.0 2.0 25 ------- null}
- -t 0.56456 -s 0 -d 1 -p tcp -e 1000 -c 0 -i 40 -a 0 -x {0.0 2.0 25 ------- null}
h -t 0.56456 -s 0 -d 1 -p tcp -e 1000 -c 0 -i 40 -a 0 -x {0.0 2.0 -1 ------- null}
+ -t 0.56456 -s 0 -d 1 -p tcp -e 1000 -c 0 -i 41 -a 0 -x {0.0 2.0 26 ------- null}
r -t 0.56536 -s 0 -d 1 -p tcp -e 1000 -c 0 -i 38 -a 0 -x {0.0 2.0 23 ------- null}
+ -t 0.56536 -s 1 -d 2 -p tcp -e 1000 -c 0 -i 38 -a 0 -x {0.0 2.0 23 ------- null}
- -t 0.56536 -s 1 -d 2 -p tcp -e 1000 -c 0 -i 34 -a 0 -x {0.0 2.0 19 ------- null}
h -t 0.56536 -s 1 -d 2 -p tcp -e 1000 -c 0 -i 34 -a 0 -x {0.0 2.0 -1 ------- null}
- -t 0.56536 -s 0 -d 1 -p tcp -e 1000 -c 0 -i 41 -a 0 -x {0.0 2.0 26 ------- null}
h -t 0.56536 -s 0 -d 1 -p tcp -e 1000 -c 0 -i 41 -a 0 -x {0.0 2.0 -1 ------- null}
r -t 0.56616 -s 0 -d 1 -p tcp -e 1000 -c 0 -i 39 -a 0 -x {0.0 2.0 24 ------- null}
+ -t 0.56616 -s 1 -d 2 -p tcp -e 1000 -c 0 -i 39 -a 0 -x {0.0 2.0 24 ------- null}
r -t 0.574528 -s 2 -d 1 -p ack -e 40 -c 0 -i 31 -a 0 -x {2.0 0.0 14 ------- null}
+ -t 0.574528 -s 1 -d 0 -p ack -e 40 -c 0 -i 31 -a 0 -x {2.0 0.0 14 ------- null}
- -t 0.574528 -s 1 -d 0 -p ack -e 40 -c 0 -i 31 -a 0 -x {2.0 0.0 14 ------- null}
h -t 0.574528 -s 1 -d 0 -p ack -e 40 -c 0 -i 31 -a 0 -x {2.0 0.0 -1 ------- null}
r -t 0.57456 -s 1 -d 0 -p ack -e 40 -c 0 -i 28 -a 0 -x {2.0 0.0 13 ------- null}
+ -t 0.57456 -s 0 -d 1 -p tcp -e 1000 -c 0 -i 42 -a 0 -x {0.0 2.0 27 ------- null}
- -t 0.57456 -s 0 -d 1 -p tcp -e 1000 -c 0 -i 42 -a 0 -x {0.0 2.0 27 ------- null}
h -t 0.57456 -s 0 -d 1 -p tcp -e 1000 -c 0 -i 42 -a 0 -x {0.0 2.0 -1 ------- null}
+ -t 0.57456 -s 0 -d 1 -p tcp -e 1000 -c 0 -i 43 -a 0 -x {0.0 2.0 28 ------- null}
- -t 0.57536 -s 1 -d 2 -p tcp -e 1000 -c 0 -i 35 -a 0 -x {0.0 2.0 20 ------- null}
h -t 0.57536 -s 1 -d 2 -p tcp -e 1000 -c 0 -i 35 -a 0 -x {0.0 2.0 -1 ------- null}
r -t 0.57536 -s 0 -d 1 -p tcp -e 1000 -c 0 -i 40 -a 0 -x {0.0 2.0 25 ------- null}
+ -t 0.57536 -s 1 -d 2 -p tcp -e 1000 -c 0 -i 40 -a 0 -x {0.0 2.0 25 ------- null}
- -t 0.57536 -s 0 -d 1 -p tcp -e 1000 -c 0 -i 43 -a 0 -x {0.0 2.0 28 ------- null}
h -t 0.57536 -s 0 -d 1 -p tcp -e 1000 -c 0 -i 43 -a 0 -x {0.0 2.0 -1 ------- null}
r -t 0.57616 -s 0 -d 1 -p tcp -e 1000 -c 0 -i 41 -a 0 -x {0.0 2.0 26 ------- null}
+ -t 0.57616 -s 1 -d 2 -p tcp -e 1000 -c 0 -i 41 -a 0 -x {0.0 2.0 26 ------- null}
r -t 0.58456 -s 1 -d 0 -p ack -e 40 -c 0 -i 31 -a 0 -x {2.0 0.0 14 ------- null}
+ -t 0.58456 -s 0 -d 1 -p tcp -e 1000 -c 0 -i 44 -a 0 -x {0.0 2.0 29 ------- null}
- -t 0.58456 -s 0 -d 1 -p tcp -e 1000 -c 0 -i 44 -a 0 -x {0.0 2.0 29 ------- null}
h -t 0.58456 -s 0 -d 1 -p tcp -e 1000 -c 0 -i 44 -a 0 -x {0.0 2.0 -1 ------- null}
+ -t 0.58456 -s 0 -d 1 -p tcp -e 1000 -c 0 -i 45 -a 0 -x {0.0 2.0 30 ------- null}
r -t 0.58536 -s 1 -d 2 -p tcp -e 1000 -c 0 -i 29 -a 0 -x {0.0 2.0 15 ------- null}
+ -t 0.58536 -s 2 -d 1 -p ack -e 40 -c 0 -i 46 -a 0 -x {2.0 0.0 15 ------- null}
- -t 0.58536 -s 2 -d 1 -p ack -e 40 -c 0 -i 46 -a 0 -x {2.0 0.0 15 ------- null}
h -t 0.58536 -s 2 -d 1 -p ack -e 40 -c 0 -i 46 -a 0 -x {2.0 0.0 -1 ------- null}
- -t 0.58536 -s 1 -d 2 -p tcp -e 1000 -c 0 -i 36 -a 0 -x {0.0 2.0 21 ------- null}
h -t 0.58536 -s 1 -d 2 -p tcp -e 1000 -c 0 -i 36 -a 0 -x {0.0 2.0 -1 ------- null}
r -t 0.58536 -s 0 -d 1 -p tcp -e 1000 -c 0 -i 42 -a 0 -x {0.0 2.0 27 ------- null}
+ -t 0.58536 -s 1 -d 2 -p tcp -e 1000 -c 0 -i 42 -a 0 -x {0.0 2.0 27 ------- null}
- -t 0.58536 -s 0 -d 1 -p tcp -e 1000 -c 0 -i 45 -a 0 -x {0.0 2.0 30 ------- null}
h -t 0.58536 -s 0 -d 1 -p tcp -e 1000 -c 0 -i 45 -a 0 -x {0.0 2.0 -1 ------- null}
r -t 0.58616 -s 0 -d 1 -p tcp -e 1000 -c 0 -i 43 -a 0 -x {0.0 2.0 28 ------- null}
+ -t 0.58616 -s 1 -d 2 -p tcp -e 1000 -c 0 -i 43 -a 0 -x {0.0 2.0 28 ------- null}
d -t 0.58616 -s 1 -d 2 -p tcp -e 1000 -c 0 -i 43 -a 0 -x {0.0 2.0 28 ------- null}
r -t 0.59536 -s 1 -d 2 -p tcp -e 1000 -c 0 -i 30 -a 0 -x {0.0 2.0 16 ------- null}
+ -t 0.59536 -s 2 -d 1 -p ack -e 40 -c 0 -i 47 -a 0 -x {2.0 0.0 16 ------- null}
- -t 0.59536 -s 2 -d 1 -p ack -e 40 -c 0 -i 47 -a 0 -x {2.0 0.0 16 ------- null}
h -t 0.59536 -s 2 -d 1 -p ack -e 40 -c 0 -i 47 -a 0 -x {2.0 0.0 -1 ------- null}
- -t 0.59536 -s 1 -d 2 -p tcp -e 1000 -c 0 -i 37 -a 0 -x {0.0 2.0 22 ------- null}
h -t 0.59536 -s 1 -d 2 -p tcp -e 1000 -c 0 -i 37 -a 0 -x {0.0 2.0 -1 ------- null}
r -t 0.59536 -s 0 -d 1 -p tcp -e 1000 -c 0 -i 44 -a 0 -x {0.0 2.0 29 ------- null}
+ -t 0.59536 -s 1 -d 2 -p tcp -e 1000 -c 0 -i 44 -a 0 -x {0.0 2.0 29 ------- null}
r -t 0.59616 -s 0 -d 1 -p tcp -e 1000 -c 0 -i 45 -a 0 -x {0.0 2.0 30 ------- null}
+ -t 0.59616 -s 1 -d 2 -p tcp -e 1000 -c 0 -i 45 -a 0 -x {0.0 2.0 30 ------- null}
d -t 0.59616 -s 1 -d 2 -p tcp -e 1000 -c 0 -i 45 -a 0 -x {0.0 2.0 30 ------- null}
r -t 0.60536 -s 1 -d 2 -p tcp -e 1000 -c 0 -i 32 -a 0 -x {0.0 2.0 17 ------- null}
+ -t 0.60536 -s 2 -d 1 -p ack -e 40 -c 0 -i 48 -a 0 -x {2.0 0.0 17 ------- null}
- -t 0.60536 -s 2 -d 1 -p ack -e 40 -c 0 -i 48 -a 0 -x {2.0 0.0 17 ------- null}
h -t 0.60536 -s 2 -d 1 -p ack -e 40 -c 0 -i 48 -a 0 -x {2.0 0.0 -1 ------- null}
- -t 0.60536 -s 1 -d 2 -p tcp -e 1000 -c 0 -i 38 -a 0 -x {0.0 2.0 23 ------- null}
h -t 0.60536 -s 1 -d 2 -p tcp -e 1000 -c 0 -i 38 -a 0 -x {0.0 2.0 -1 ------- null}
r -t 0.61536 -s 1 -d 2 -p tcp -e 1000 -c 0 -i 33 -a 0 -x {0.0 2.0 18 ------- null}
+ -t 0.61536 -s 2 -d 1 -p ack -e 40 -c 0 -i 49 -a 0 -x {2.0 0.0 18 ------- null}
- -t 0.61536 -s 2 -d 1 -p ack -e 40 -c 0 -i 49 -a 0 -x {2.0 0.0 18 ------- null}
h -t 0.61536 -s 2 -d 1 -p ack -e 40 -c 0 -i 49 -a 0 -x {2.0 0.0 -1 ------- null}
- -t 0.61536 -s 1 -d 2 -p tcp -e 1000 -c 0 -i 39 -a 0 -x {0.0 2.0 24 ------- null}
h -t 0.61536 -s 1 -d 2 -p tcp -e 1000 -c 0 -i 39 -a 0 -x {0.0 2.0 -1 ------- null}
r -t 0.62536 -s 1 -d 2 -p tcp -e 1000 -c 0 -i 34 -a 0 -x {0.0 2.0 19 ------- null}