V -t * -v 1.0a5 -a 0
A -t * -n 1 -p 0 -o 0x7fffffff -c 30 -a 1
A -t * -h 1 -m 1073741823 -s 0
c -t * -i 0 -n Blue
n -t * -a 0 -s 0 -S UP -v circle -c black -i black
n -t * -a 1 -s 1 -S UP -v circle -c black -i black
n -t * -a 2 -s 2 -S UP -v circle -c black -i black
l -t * -s 0 -d 1 -S UP -r 10000000 -D 0.01 -c black -o right-up
l -t * -s 1 -d 2 -S UP -r 800000 -D 0.050000000000000003 -c black -o right-down
q -t * -s 2 -d 1 -a 0.5
q -t * -s 1 -d 2 -a 0.5
+ -t 0 -s 0 -d 1 -p tcp -e 960 -c 0 -i 0 -a 0 -x {0.0 2.0 0 ------- null}
- -t 0 -s 0 -d 1 -p tcp -e 960 -c 0 -i 0 -a 0 -x {0.0 2.0 0 ------- null}
h -t 0 -s 0 -d 1 -p tcp -e 960 -c 0 -i 0 -a 0 -x {0.0 2.0 -1 ------- null}
r -t 0.010768 -s 0 -d 1 -p tcp -e 960 -c 0 -i 0 -a 0 -x {0.0 2.0 0 ------- null}
+ -t 0.010768 -s 1 -d 2 -p tcp -e 960 -c 0 -i 0 -a 0 -x {0.0 2.0 0 ------- null}
- -t 0.010768 -s 1 -d 2 -p tcp -e 960 -c 0 -i 0 -a 0 -x {0.0 2.0 0 ------- null}
h -t 0.010768 -s 1 -d 2 -p tcp -e 960 -c 0 -i 0 -a 0 -x {0.0 2.0 -1 ------- null}
r -t 0.070368 -s 1 -d 2 -p tcp -e 960 -c 0 -i 0 -a 0 -x {0.0 2.0 0 ------- null}
+ -t 0.070368 -s 2 -d 1 -p ack -e 40 -c 0 -i 1 -a 0 -x {2.0 0.0 0 ------- null}
- -t 0.070368 -s 2 -d 1 -p ack -e 40 -c 0 -i 1 -a 0 -x {2.0 0.0 0 ------- null}
h -t 0.070368 -s 2 -d 1 -p ack -e 40 -c 0 -i 1 -a 0 -x {2.0 0.0 -1 ------- null}
r -t 0.120768 -s 2 -d 1 -p ack -e 40 -c 0 -i 1 -a 0 -x {2.0 0.0 0 ------- null}
+ -t 0.120768 -s 1 -d 0 -p ack -e 40 -c 0 -i 1 -a 0 -x {2.0 0.0 0 ------- null}
- -t 0.120768 -s 1 -d 0 -p ack -e 40 -c 0 -i 1 -a 0 -x {2.0 0.0 0 ------- null}
h -t 0.120768 -s 1 -d 0 -p ack -e 40 -c 0 -i 1 -a 0 -x {2.0 0.0 -1 ------- null}
r -t 0.1308 -s 1 -d 0 -p ack -e 40 -c 0 -i 1 -a 0 -x {2.0 0.0 0 ------- null}
+ -t 0.1308 -s 0 -d 1 -p tcp -e 960 -c 0 -i 2 -a 0 -x {0.0 2.0 1 ------- null}
- -t 0.1308 -s 0 -d 1 -p tcp -e 960 -c 0 -i 2 -a 0 -x {0.0 2.0 1 ------- null}
h -t 0.1308 -s 0 -d 1 -p tcp -e 960 -c 0 -i 2 -a 0 -x {0.0 2.0 -1 ------- null}
r -t 0.141568 -s 0 -d 1 -p tcp -e 960 -c 0 -i 2 -a 0 -x {0.0 2.0 1 ------- null}
+ -t 0.141568 -s 1 -d 2 -p tcp -e 960 -c 0 -i 2 -a 0 -x {0.0 2.0 1 ------- null}
- -t 0.141568 -s 1 -d 2 -p tcp -e 960 -c 0 -i 2 -a 0 -x {0.0 2.0 1 ------- null}
h -t 0.141568 -s 1 -d 2 -p tcp -e 960 -c 0 -i 2 -a 0 -x {0.0 2.0 -1 ------- null}
r -t 0.201168 -s 1 -d 2 -p tcp -e 960 -c 0 -i 2 -a 0 -x {0.0 2.0 1 ------- null}
+ -t 0.201168 -s 2 -d 1 -p ack -e 40 -c 0 -i 3 -a 0 -x {2.0 0.0 1 ------- null}
- -t 0.201168 -s 2 -d 1 -p ack -e 40 -c 0 -i 3 -a 0 -x {2.0 0.0 1 ------- null}
h -t 0.201168 -s 2 -d 1 -p ack -e 40 -c 0 -i 3 -a 0 -x {2.0 0.0 -1 ------- null}
r -t 0.251568 -s 2 -d 1 -p ack -e 40 -c 0 -i 3 -a 0 -x {2.0 0.0 1 ------- null}
+ -t 0.251568 -s 1 -d 0 -p ack -e 40 -c 0 -i 3 -a 0 -x {2.0 0.0 1 ------- null}
- -t 0.251568 -s 1 -d 0 -p ack -e 40 -c 0 -i 3 -a 0 -x {2.0 0.0 1 ------- null}
h -t 0.251568 -s 1 -d 0 -p ack -e 40 -c 0 -i 3 -a 0 -x {2.0 0.0 -1 ------- null}
r -t 0.2616 -s 1 -d 0 -p ack -e 40 -c 0 -i 3 -a 0 -x {2.0 0.0 1 ------- null}
+ -t 0.2616 -s 0 -d 1 -p tcp -e 960 -c 0 -i 4 -a 0 -x {0.0 2.0 2 ------- null}
- -t 0.2616 -s 0 -d 1 -p tcp -e 960 -c 0 -i 4 -a 0 -x {0.0 2.0 2 ------- null}
h -t 0.2616 -s 0 -d 1 -p tcp -e 960 -c 0 -i 4 -a 0 -x {0.0 2.0 -1 ------- null}
+ -t 0.2616 -s 0 -d 1 -p tcp -e 960 -c 0 -i 5 -a 0 -x {0.0 2.0 3 ------- null}
+ -t 0.2616 -s 0 -d 1 -p tcp -e 960 -c 0 -i 6 -a 0 -x {0.0 2.0 4 ------- null}
- -t 0.262368 -s 0 -d 1 -p tcp -e 960 -c 0 -i 5 -a 0 -x {0.0 2.0 3 ------- null}
h -t 0.262368 -s 0 -d 1 -p tcp -e 960 -c 0 -i 5 -a 0 -x {0.0 2.0 -1 ------- null}
- -t 0.263136 -s 0 -d 1 -p tcp -e 960 -c 0 -i 6 -a 0 -x {0.0 2.0 4 ------- null}
h -t 0.263136 -s 0 -d 1 -p tcp -e 960 -c 0 -i 6 -a 0 -x {0.0 2.0 -1 ------- null}
r -t 0.272368 -s 0 -d 1 -p tcp -e 960 -c 0 -i 4 -a 0 -x {0.0 2.0 2 ------- null}
+ -t 0.272368 -s 1 -d 2 -p tcp -e 960 -c 0 -i 4 -a 0 -x {0.0 2.0 2 ------- null}
- -t 0.272368 -s 1 -d 2 -p tcp -e 960 -c 0 -i 4 -a 0 -x {0.0 2.0 2 ------- null}
h -t 0.272368 -s 1 -d 2 -p tcp -e 960 -c 0 -i 4 -a 0 -x {0.0 2.0 -1 ------- null}
r -t 0.273136 -s 0 -d 1 -p tcp -e 960 -c 0 -i 5 -a 0 -x {0.0 2.0 3 ------- null}
+ -t 0.273136 -s 1 -d 2 -p tcp -e 960 -c 0 -i 5 -a 0 -x {0.0 2.0 3 ------- null}
r -t 0.273904 -s 0 -d 1 -p tcp -e 960 -c 0 -i 6 -a 0 -x {0.0 2.0 4 ------- null}
+ -t 0.273904 -s 1 -d 2 -p tcp -e 960 -c 0 -i 6 -a 0 -x {0.0 2.0 4 ------- null}
- -t 0.281968 -s 1 -d 2 -p tcp -e 960 -c 0 -i 5 -a 0 -x {0.0 2.0 3 ------- null}
h -t 0.281968 -s 1 -d 2 -p tcp -e 960 -c 0 -i 5 -a 0 -x {0.0 2.0 -1 ------- null}
- -t 0.291568 -s 1 -d 2 -p tcp -e 960 -c 0 -i 6 -a 0 -x {0.0 2.0 4 ------- null}
h -t 0.291568 -s 1 -d 2 -p tcp -e 960 -c 0 -i 6 -a 0 -x {0.0 2.0 -1 ------- null}
r -t 0.331968 -s 1 -d 2 -p tcp -e 960 -c 0 -i 4 -a 0 -x {0.0 2.0 2 ------- null}
+ -t 0.331968 -s 2 -d 1 -p ack -e 40 -c 0 -i 7 -a 0 -x {2.0 0.0 2 ------- null}
- -t 0.331968 -s 2 -d 1 -p ack -e 40 -c 0 -i 7 -a 0 -x {2.0 0.0 2 ------- null}
h -t 0.331968 -s 2 -d 1 -p ack -e 40 -c 0 -i 7 -a 0 -x {2.0 0.0 -1 ------- null}
r -t 0.341568 -s 1 -d 2 -p tcp -e 960 -c 0 -i 5 -a 0 -x {0.0 2.0 3 ------- null}
+ -t 0.341568 -s 2 -d 1 -p ack -e 40 -c 0 -i 8 -a 0 -x {2.0 0.0 3 ------- null}
- -t 0.341568 -s 2 -d 1 -p ack -e 40 -c 0 -i 8 -a 0 -x {2.0 0.0 3 ------- null}
h -t 0.341568 -s 2 -d 1 -p ack -e 40 -c 0 -i 8 -a 0 -x {2.0 0.0 -1 ------- null}
r -t 0.351168 -s 1 -d 2 -p tcp -e 960 -c 0 -i 6 -a 0 -x {0.0 2.0 4 ------- null}
+ -t 0.351168 -s 2 -d 1 -p ack -e 40 -c 0 -i 9 -a 0 -x {2.0 0.0 4 ------- null}
- -t 0.351168 -s 2 -d 1 -p ack -e 40 -c 0 -i 9 -a 0 -x {2.0 0.0 4 ------- null}
h -t 0.351168 -s 2 -d 1 -p ack -e 40 -c 0 -i 9 -a 0 -x {2.0 0.0 -1 ------- null}
r -t 0.382368 -s 2 -d 1 -p ack -e 40 -c 0 -i 7 -a 0 -x {2.0 0.0 2 ------- null}
+ -t 0.382368 -s 1 -d 0 -p ack -e 40 -c 0 -i 7 -a 0 -x {2.0 0.0 2 ------- null}
- -t 0.382368 -s 1 -d 0 -p ack -e 40 -c 0 -i 7 -a 0 -x {2.0 0.0 2 ------- null}
h -t 0.382368 -s 1 -d 0 -p ack -e 40 -c 0 -i 7 -a 0 -x {2.0 0.0 -1 ------- null}
r -t 0.391968 -s 2 -d 1 -p ack -e 40 -c 0 -i 8 -a 0 -x {2.0 0.0 3 ------- null}
+ -t 0.391968 -s 1 -d 0 -p ack -e 40 -c 0 -i 8 -a 0 -x {2.0 0.0 3 ------- null}
- -t 0.391968 -s 1 -d 0 -p ack -e 40 -c 0 -i 8 -a 0 -x {2.0 0.0 3 ------- null}
h -t 0.391968 -s 1 -d 0 -p ack -e 40 -c 0 -i 8 -a 0 -x {2.0 0.0 -1 ------- null}
r -t 0.3924 -s 1 -d 0 -p ack -e 40 -c 0 -i 7 -a 0 -x {2.0 0.0 2 ------- null}
+ -t 0.3924 -s 0 -d 1 -p tcp -e 960 -c 0 -i 10 -a 0 -x {0.0 2.0 5 ------- null}
- -t 0.3924 -s 0 -d 1 -p tcp -e 960 -c 0 -i 10 -a 0 -x {0.0 2.0 5 ------- null}
h -t 0.3924 -s 0 -d 1 -p tcp -e 960 -c 0 -i 10 -a 0 -x {0.0 2.0 -1 ------- null}
r -t 0.401568 -s 2 -d 1 -p ack -e 40 -c 0 -i 9 -a 0 -x {2.0 0.0 4 ------- null}
+ -t 0.401568 -s 1 -d 0 -p ack -e 40 -c 0 -i 9 -a 0 -x {2.0 0.0 4 ------- null}
- -t 0.401568 -s 1 -d 0 -p ack -e 40 -c 0 -i 9 -a 0 -x {2.0 0.0 4 ------- null}
h -t 0.401568 -s 1 -d 0 -p ack -e 40 -c 0 -i 9 -a 0 -x {2.0 0.0 -1 ------- null}
r -t 0.402 -s 1 -d 0 -p ack -e 40 -c 0 -i 8 -a 0 -x {2.0 0.0 3 ------- null}
+ -t 0.402 -s 0 -d 1 -p tcp -e 960 -c 0 -i 11 -a 0 -x {0.0 2.0 6 ------- null}
- -t 0.402 -s 0 -d 1 -p tcp -e 960 -c 0 -i 11 -a 0 -x {0.0 2.0 6 ------- null}
h -t 0.402 -s 0 -d 1 -p tcp -e 960 -c 0 -i 11 -a 0 -x {0.0 2.0 -1 ------- null}
r -t 0.403168 -s 0 -d 1 -p tcp -e 960 -c 0 -i 10 -a 0 -x {0.0 2.0 5 ------- null}
+ -t 0.403168 -s 1 -d 2 -p tcp -e 960 -c 0 -i 10 -a 0 -x {0.0 2.0 5 ------- null}
- -t 0.403168 -s 1 -d 2 -p tcp -e 960 -c 0 -i 10 -a 0 -x {0.0 2.0 5 ------- null}
h -t 0.403168 -s 1 -d 2 -p tcp -e 960 -c 0 -i 10 -a 0 -x {0.0 2.0 -1 ------- null}
r -t 0.4116 -s 1 -d 0 -p ack -e 40 -c 0 -i 9 -a 0 -x {2.0 0.0 4 ------- null}
+ -t 0.4116 -s 0 -d 1 -p tcp -e 960 -c 0 -i 12 -a 0 -x {0.0 2.0 7 ------- null}
- -t 0.4116 -s 0 -d 1 -p tcp -e 960 -c 0 -i 12 -a 0 -x {0.0 2.0 7 ------- null}
h -t 0.4116 -s 0 -d 1 -p tcp -e 960 -c 0 -i 12 -a 0 -x {0.0 2.0 -1 ------- null}
r -t 0.412768 -s 0 -d 1 -p tcp -e 960 -c 0 -i 11 -a 0 -x {0.0 2.0 6 ------- null}
+ -t 0.412768 -s 1 -d 2 -p tcp -e 960 -c 0 -i 11 -a 0 -x {0.0 2.0 6 ------- null}
- -t 0.412768 -s 1 -d 2 -p tcp -e 960 -c 0 -i 11 -a 0 -x {0.0 2.0 6 ------- null}
h -t 0.412768 -s 1 -d 2 -p tcp -e 960 -c 0 -i 11 -a 0 -x {0.0 2.0 -1 ------- null}
r -t 0.422368 -s 0 -d 1 -p tcp -e 960 -c 0 -i 12 -a 0 -x {0.0 2.0 7 ------- null}
+ -t 0.422368 -s 1 -d 2 -p tcp -e 960 -c 0 -i 12 -a 0 -x {0.0 2.0 7 ------- null}
- -t 0.422368 -s 1 -d 2 -p tcp -e 960 -c 0 -i 12 -a 0 -x {0.0 2.0 7 ------- null}
h -t 0.422368 -s 1 -d 2 -p tcp -e 960 -c 0 -i 12 -a 0 -x {0.0 2.0 -1 ------- null}
r -t 0.462768 -s 1 -d 2 -p tcp -e 960 -c 0 -i 10 -a 0 -x {0.0 2.0 5 ------- null}
+ -t 0.462768 -s 2 -d 1 -p ack -e 40 -c 0 -i 13 -a 0 -x {2.0 0.0 5 ------- null}
- -t 0.462768 -s 2 -d 1 -p ack -e 40 -c 0 -i 13 -a 0 -x {2.0 0.0 5 ------- null}
h -t 0.462768 -s 2 -d 1 -p ack -e 40 -c 0 -i 13 -a 0 -x {2.0 0.0 -1 ------- null}
r -t 0.472368 -s 1 -d 2 -p tcp -e 960 -c 0 -i 11 -a 0 -x {0.0 2.0 6 ------- null}
+ -t 0.472368 -s 2 -d 1 -p ack -e 40 -c 0 -i 14 -a 0 -x {2.0 0.0 6 ------- null}
- -t 0.472368 -s 2 -d 1 -p ack -e 40 -c 0 -i 14 -a 0 -x {2.0 0.0 6 ------- null}
h -t 0.472368 -s 2 -d 1 -p ack -e 40 -c 0 -i 14 -a 0 -x {2.0 0.0 -1 ------- null}
r -t 0.481968 -s 1 -d 2 -p tcp -e 960 -c 0 -i 12 -a 0 -x {0.0 2.0 7 ------- null}
+ -t 0.481968 -s 2 -d 1 -p ack -e 40 -c 0 -i 15 -a 0 -x {2.0 0.0 7 ------- null}
- -t 0.481968 -s 2 -d 1 -p ack -e 40 -c 0 -i 15 -a 0 -x {2.0 0.0 7 ------- null}
h -t 0.481968 -s 2 -d 1 -p ack -e 40 -c 0 -i 15 -a 0 -x {2.0 0.0 -1 ------- null}
r -t 0.513168 -s 2 -d 1 -p ack -e 40 -c 0 -i 13 -a 0 -x {2.0 0.0 5 ------- null}
+ -t 0.513168 -s 1 -d 0 -p ack -e 40 -c 0 -i 13 -a 0 -x {2.0 0.0 5 ------- null}
- -t 0.513168 -s 1 -d 0 -p ack -e 40 -c 0 -i 13 -a 0 -x {2.0 0.0 5 ------- null}
h -t 0.513168 -s 1 -d 0 -p ack -e 40 -c 0 -i 13 -a 0 -x {2.0 0.0 -1 ------- null}
r -t 0.522768 -s 2 -d 1 -p ack -e 40 -c 0 -i 14 -a 0 -x {2.0 0.0 6 ------- null}
+ -t 0.522768 -s 1 -d 0 -p ack -e 40 -c 0 -i 14 -a 0 -x {2.0 0.0 6 ------- null}
- -t 0.522768 -s 1 -d 0 -p ack -e 40 -c 0 -i 14 -a 0 -x {2.0 0.0 6 ------- null}
h -t 0.522768 -s 1 -d 0 -p ack -e 40 -c 0 -i 14 -a 0 -x {2.0 0.0 -1 ------- null}
r -t 0.5232 -s 1 -d 0 -p ack -e 40 -c 0 -i 13 -a 0 -x {2.0 0.0 5 ------- null}
+ -t 0.5232 -s 0 -d 1 -p tcp -e 960 -c 0 -i 16 -a 0 -x {0.0 2.0 8 ------- null}
- -t 0.5232 -s 0 -d 1 -p tcp -e 960 -c 0 -i 16 -a 0 -x {0.0 2.0 8 ------- null}
h -t 0.5232 -s 0 -d 1 -p tcp -e 960 -c 0 -i 16 -a 0 -x {0.0 2.0 -1 ------- null}
+ -t 0.5232 -s 0 -d 1 -p tcp -e 960 -c 0 -i 17 -a 0 -x {0.0 2.0 9 ------- null}
- -t 0.523968 -s 0 -d 1 -p tcp -e 960 -c 0 -i 17 -a 0 -x {0.0 2.0 9 ------- null}
h -t 0.523968 -s 0 -d 1 -p tcp -e 960 -c 0 -i 17 -a 0 -x {0.0 2.0 -1 ------- null}
r -t 0.532368 -s 2 -d 1 -p ack -e 40 -c 0 -i 15 -a 0 -x {2.0 0.0 7 ------- null}
+ -t 0.532368 -s 1 -d 0 -p ack -e 40 -c 0 -i 15 -a 0 -x {2.0 0.0 7 ------- null}
- -t 0.532368 -s 1 -d 0 -p ack -e 40 -c 0 -i 15 -a 0 -x {2.0 0.0 7 ------- null}
h -t 0.532368 -s 1 -d 0 -p ack -e 40 -c 0 -i 15 -a 0 -x {2.0 0.0 -1 ------- null}
r -t 0.5328 -s 1 -d 0 -p ack -e 40 -c 0 -i 14 -a 0 -x {2.0 0.0 6 ------- null}
+ -t 0.5328 -s 0 -d 1 -p tcp -e 960 -c 0 -i 18 -a 0 -x {0.0 2.0 10 ------- null}
- -t 0.5328 -s 0 -d 1 -p tcp -e 960 -c 0 -i 18 -a 0 -x {0.0 2.0 10 ------- null}
h -t 0.5328 -s 0 -d 1 -p tcp -e 960 -c 0 -i 18 -a 0 -x {0.0 2.0 -1 ------- null}
+ -t 0.5328 -s 0 -d 1 -p tcp -e 960 -c 0 -i 19 -a 0 -x {0.0 2.0 11 ------- null}
- -t 0.533568 -s 0 -d 1 -p tcp -e 960 -c 0 -i 19 -a 0 -x {0.0 2.0 11 ------- null}
h -t 0.533568 -s 0 -d 1 -p tcp -e 960 -c 0 -i 19 -a 0 -x {0.0 2.0 -1 ------- null}
r -t 0.533968 -s 0 -d 1 -p tcp -e 960 -c 0 -i 16 -a 0 -x {0.0 2.0 8 ------- null}
+ -t 0.533968 -s 1 -d 2 -p tcp -e 960 -c 0 -i 16 -a 0 -x {0.0 2.0 8 ------- null}
- -t 0.533968 -s 1 -d 2 -p tcp -e 960 -c 0 -i 16 -a 0 -x {0.0 2.0 8 ------- null}
h -t 0.533968 -s 1 -d 2 -p tcp -e 960 -c 0 -i 16 -a 0 -x {0.0 2.0 -1 ------- null}
r -t 0.534736 -s 0 -d 1 -p tcp -e 960 -c 0 -i 17 -a 0 -x {0.0 2.0 9 ------- null}
+ -t 0.534736 -s 1 -d 2 -p tcp -e 960 -c 0 -i 17 -a 0 -x {0.0 2.0 9 ------- null}
r -t 0.5424 -s 1 -d 0 -p ack -e 40 -c 0 -i 15 -a 0 -x {2.0 0.0 7 ------- null}
+ -t 0.5424 -s 0 -d 1 -p tcp -e 960 -c 0 -i 20 -a 0 -x {0.0 2.0 12 ------- null}
- -t 0.5424 -s 0 -d 1 -p tcp -e 960 -c 0 -i 20 -a 0 -x {0.0 2.0 12 ------- null}
h -t 0.5424 -s 0 -d 1 -p tcp -e 960 -c 0 -i 20 -a 0 -x {0.0 2.0 -1 ------- null}
+ -t 0.5424 -s 0 -d 1 -p tcp -e 960 -c 0 -i 21 -a 0 -x {0.0 2.0 13 ------- null}
- -t 0.543168 -s 0 -d 1 -p tcp -e 960 -c 0 -i 21 -a 0 -x {0.0 2.0 13 ------- null}
h -t 0.543168 -s 0 -d 1 -p tcp -e 960 -c 0 -i 21 -a 0 -x {0.0 2.0 -1 ------- null}
r -t 0.543568 -s 0 -d 1 -p tcp -e 960 -c 0 -i 18 -a 0 -x {0.0 2.0 10 ------- null}
+ -t 0.543568 -s 1 -d 2 -p tcp -e 960 -c 0 -i 18 -a 0 -x {0.0 2.0 10 ------- null}
- -t 0.543568 -s 1 -d 2 -p tcp -e 960 -c 0 -i 17 -a 0 -x {0.0 2.0 9 ------- null}
h -t 0.543568 -s 1 -d 2 -p tcp -e 960 -c 0 -i 17 -a 0 -x {0.0 2.0 -1 ------- null}
r -t 0.544336 -s 0 -d 1 -p tcp -e 960 -c 0 -i 19 -a 0 -x {0.0 2.0 11 ------- null}
+ -t 0.544336 -s 1 -d 2 -p tcp -e 960 -c 0 -i 19 -a 0 -x {0.0 2.0 11 ------- null}
r -t 0.553168 -s 0 -d 1 -p tcp -e 960 -c 0 -i 20 -a 0 -x {0.0 2.0 12 ------- null}
+ -t 0.553168 -s 1 -d 2 -p tcp -e 960 -c 0 -i 20 -a 0 -x {0.0 2.0 12 ------- null}
- -t 0.553168 -s 1 -d 2 -p tcp -e 960 -c 0 -i 18 -a 0 -x {0.0 2.0 10 ------- null}
h -t 0.553168 -s 1 -d 2 -p tcp -e 960 -c 0 -i 18 -a 0 -x {0.0 2.0 -1 ------- null}
r -t 0.553936 -s 0 -d 1 -p tcp -e 960 -c 0 -i 21 -a 0 -x {0.0 2.0 13 ------- null}
+ -t 0.553936 -s 1 -d 2 -p tcp -e 960 -c 0 -i 21 -a 0 -x {0.0 2.0 13 ------- null}
- -t 0.562768 -s 1 -d 2 -p tcp -e 960 -c 0 -i 19 -a 0 -x {0.0 2.0 11 ------- null}
h -t 0.562768 -s 1 -d 2 -p tcp -e 960 -c 0 -i 19 -a 0 -x {0.0 2.0 -1 ------- null}
- -t 0.572368 -s 1 -d 2 -p tcp -e 960 -c 0 -i 20 -a 0 -x {0.0 2.0 12 ------- null}
h -t 0.572368 -s 1 -d 2 -p tcp -e 960 -c 0 -i 20 -a 0 -x {0.0 2.0 -1 ------- null}
- -t 0.581968 -s 1 -d 2 -p tcp -e 960 -c 0 -i 21 -a 0 -x {0.0 2.0 13 ------- null}
h -t 0.581968 -s 1 -d 2 -p tcp -e 960 -c 0 -i 21 -a 0 -x {0.0 2.0 -1 ------- null}
r -t 0.593568 -s 1 -d 2 -p tcp -e 960 -c 0 -i 16 -a 0 -x {0.0 2.0 8 ------- null}
+ -t 0.593568 -s 2 -d 1 -p ack -e 40 -c 0 -i 22 -a 0 -x {2.0 0.0 8 ------- null}
- -t 0.593568 -s 2 -d 1 -p ack -e 40 -c 0 -i 22 -a 0 -x {2.0 0.0 8 ------- null}
h -t 0.593568 -s 2 -d 1 -p ack -e 40 -c 0 -i 22 -a 0 -x {2.0 0.0 -1 ------- null}
r -t 0.603168 -s 1 -d 2 -p tcp -e 960 -c 0 -i 17 -a 0 -x {0.0 2.0 9 ------- null}
+ -t 0.603168 -s 2 -d 1 -p ack -e 40 -c 0 -i 23 -a 0 -x {2.0 0.0 9 ------- null}
- -t 0.603168 -s 2 -d 1 -p ack -e 40 -c 0 -i 23 -a 0 -x {2.0 0.0 9 ------- null}
h -t 0.603168 -s 2 -d 1 -p ack -e 40 -c 0 -i 23 -a 0 -x {2.0 0.0 -1 ------- null}
r -t 0.612768 -s 1 -d 2 -p tcp -e 960 -c 0 -i 18 -a 0 -x {0.0 2.0 10 ------- null}
+ -t 0.612768 -s 2 -d 1 -p ack -e 40 -c 0 -i 24 -a 0 -x {2.0 0.0 10 ------- null}
- -t 0.612768 -s 2 -d 1 -p ack -e 40 -c 0 -i 24 -a 0 -x {2.0 0.0 10 ------- null}
h -t 0.612768 -s 2 -d 1 -p ack -e 40 -c 0 -i 24 -a 0 -x {2.0 0.0 -1 ------- null}
r -t 0.622368 -s 1 -d 2 -p tcp -e 960 -c 0 -i 19 -a 0 -x {0.0 2.0 11 ------- null}
+ -t 0.622368 -s 2 -d 1 -p ack -e 40 -c 0 -i 25 -a 0 -x {2.0 0.0 11 ------- null}
- -t 0.622368 -s 2 -d 1 -p ack -e 40 -c 0 -i 25 -a 0 -x {2.0 0.0 11 ------- null}
h -t 0.622368 -s 2 -d 1 -p ack -e 40 -c 0 -i 25 -a 0 -x {2.0 0.0 -1 ------- null}
r -t 0.631968 -s 1 -d 2 -p tcp -e 960 -c 0 -i 20 -a 0 -x {0.0 2.0 12 ------- null}
+ -t 0.631968 -s 2 -d 1 -p ack -e 40 -c 0 -i 26 -a 0 -x {2.0 0.0 12 ------- null}
- -t 0.631968 -s 2 -d 1 -p ack -e 40 -c 0 -i 26 -a 0 -x {2.0 0.0 12 ------- null}
h -t 0.631968 -s 2 -d 1 -p ack -e 40 -c 0 -i 26 -a 0 -x {2.0 0.0 -1 ------- null}
r -t 0.641568 -s 1 -d 2 -p tcp -e 960 -c 0 -i 21 -a 0 -x {0.0 2.0 13 ------- null}
+ -t 0.641568 -s 2 -d 1 -p ack -e 40 -c 0 -i 27 -a 0 -x {2.0 0.0 13 ------- null}
- -t 0.641568 -s 2 -d 1 -p ack -e 40 -c 0 -i 27 -a 0 -x {2.0 0.0 13 ------- null}
h -t 0.641568 -s 2 -d 1 -p ack -e 40 -c 0 -i 27 -a 0 -x {2.0 0.0 -1 ------- null}
r -t 0.643968 -s 2 -d 1 -p ack -e 40 -c 0 -i 22 -a 0 -x {2.0 0.0 8 ------- null}
+ -t 0.643968 -s 1 -d 0 -p ack -e 40 -c 0 -i 22 -a 0 -x {2.0 0.0 8 ------- null}
- -t 0.643968 -s 1 -d 0 -p ack -e 40 -c 0 -i 22 -a 0 -x {2.0 0.0 8 ------- null}
h -t 0.643968 -s 1 -d 0 -p ack -e 40 -c 0 -i 22 -a 0 -x {2.0 0.0 -1 ------- null}
r -t 0.653568 -s 2 -d 1 -p ack -e 40 -c 0 -i 23 -a 0 -x {2.0 0.0 9 ------- null}
+ -t 0.653568 -s 1 -d 0 -p ack -e 40 -c 0 -i 23 -a 0 -x {2.0 0.0 9 ------- null}
- -t 0.653568 -s 1 -d 0 -p ack -e 40 -c 0 -i 23 -a 0 -x {2.0 0.0 9 ------- null}
h -t 0.653568 -s 1 -d 0 -p ack -e 40 -c 0 -i 23 -a 0 -x {2.0 0.0 -1 ------- null}
r -t 0.654 -s 1 -d 0 -p ack -e 40 -c 0 -i 22 -a 0 -x {2.0 0.0 8 ------- null}
+ -t 0.654 -s 0 -d 1 -p tcp -e 960 -c 0 -i 28 -a 0 -x {0.0 2.0 14 ------- null}
- -t 0.654 -s 0 -d 1 -p tcp -e 960 -c 0 -i 28 -a 0 -x {0.0 2.0 14 ------- null}
h -t 0.654 -s 0 -d 1 -p tcp -e 960 -c 0 -i 28 -a 0 -x {0.0 2.0 -1 ------- null}
r -t 0.663168 -s 2 -d 1 -p ack -e 40 -c 0 -i 24 -a 0 -x {2.0 0.0 10 ------- null}
+ -t 0.663168 -s 1 -d 0 -p ack -e 40 -c 0 -i 24 -a 0 -x {2.0 0.0 10 ------- null}
- -t 0.663168 -s 1 -d 0 -p ack -e 40 -c 0 -i 24 -a 0 -x {2.0 0.0 10 ------- null}
h -t 0.663168 -s 1 -d 0 -p ack -e 40 -c 0 -i 24 -a 0 -x {2.0 0.0 -1 ------- null}
r -t 0.6636 -s 1 -d 0 -p ack -e 40 -c 0 -i 23 -a 0 -x {2.0 0.0 9 ------- null}
+ -t 0.6636 -s 0 -d 1 -p tcp -e 960 -c 0 -i 29 -a 0 -x {0.0 2.0 15 ------- null}
- -t 0.6636 -s 0 -d 1 -p tcp -e 960 -c 0 -i 29 -a 0 -x {0.0 2.0 15 ------- null}
h -t 0.6636 -s 0 -d 1 -p tcp -e 960 -c 0 -i 29 -a 0 -x {0.0 2.0 -1 ------- null}
r -t 0.664768 -s 0 -d 1 -p tcp -e 960 -c 0 -i 28 -a 0 -x {0.0 2.0 14 ------- null}
+ -t 0.664768 -s 1 -d 2 -p tcp -e 960 -c 0 -i 28 -a 0 -x {0.0 2.0 14 ------- null}
- -t 0.664768 -s 1 -d 2 -p tcp -e 960 -c 0 -i 28 -a 0 -x {0.0 2.0 14 ------- null}
h -t 0.664768 -s 1 -d 2 -p tcp -e 960 -c 0 -i 28 -a 0 -x {0.0 2.0 -1 ------- null}
r -t 0.672768 -s 2 -d 1 -p ack -e 40 -c 0 -i 25 -a 0 -x {2.0 0.0 11 ------- null}
+ -t 0.672768 -s 1 -d 0 -p ack -e 40 -c 0 -i 25 -a 0 -x {2.0 0.0 11 ------- null}
- -t 0.672768 -s 1 -d 0 -p ack -e 40 -c 0 -i 25 -a 0 -x {2.0 0.0 11 ------- null}
h -t 0.672768 -s 1 -d 0 -p ack -e 40 -c 0 -i 25 -a 0 -x {2.0 0.0 -1 ------- null}
r -t 0.6732 -s 1 -d 0 -p ack -e 40 -c 0 -i 24 -a 0 -x {2.0 0.0 10 ------- null}
+ -t 0.6732 -s 0 -d 1 -p tcp -e 960 -c 0 -i 30 -a 0 -x {0.0 2.0 16 ------- null}
- -t 0.6732 -s 0 -d 1 -p tcp -e 960 -c 0 -i 30 -a 0 -x {0.0 2.0 16 ------- null}
h -t 0.6732 -s 0 -d 1 -p tcp -e 960 -c 0 -i 30 -a 0 -x {0.0 2.0 -1 ------- null}
r -t 0.674368 -s 0 -d 1 -p tcp -e 960 -c 0 -i 29 -a 0 -x {0.0 2.0 15 ------- null}
+ -t 0.674368 -s 1 -d 2 -p tcp -e 960 -c 0 -i 29 -a 0 -x {0.0 2.0 15 ------- null}
- -t 0.674368 -s 1 -d 2 -p tcp -e 960 -c 0 -i 29 -a 0 -x {0.0 2.0 15 ------- null}
h -t 0.674368 -s 1 -d 2 -p tcp -e 960 -c 0 -i 29 -a 0 -x {0.0 2.0 -1 ------- null}
r -t 0.682368 -s 2 -d 1 -p ack -e 40 -c 0 -i 26 -a 0 -x {2.0 0.0 12 ------- null}
+ -t 0.682368 -s 1 -d 0 -p ack -e 40 -c 0 -i 26 -a 0 -x {2.0 0.0 12 ------- null}
- -t 0.682368 -s 1 -d 0 -p ack -e 40 -c 0 -i 26 -a 0 -x {2.0 0.0 12 ------- null}
h -t 0.682368 -s 1 -d 0 -p ack -e 40 -c 0 -i 26 -a 0 -x {2.0 0.0 -1 ------- null}
r -t 0.6828 -s 1 -d 0 -p ack -e 40 -c 0 -i 25 -a 0 -x {2.0 0.0 11 ------- null}
+ -t 0.6828 -s 0 -d 1 -p tcp -e 960 -c 0 -i 31 -a 0 -x {0.0 2.0 17 ------- null}
- -t 0.6828 -s 0 -d 1 -p tcp -e 960 -c 0 -i 31 -a 0 -x {0.0 2.0 17 ------- null}
h -t 0.6828 -s 0 -d 1 -p tcp -e 960 -c 0 -i 31 -a 0 -x {0.0 2.0 -1 ------- null}
r -t 0.683968 -s 0 -d 1 -p tcp -e 960 -c 0 -i 30 -a 0 -x {0.0 2.0 16 ------- null}
+ -t 0.683968 -s 1 -d 2 -p tcp -e 960 -c 0 -i 30 -a 0 -x {0.0 2.0 16 ------- null}
- -t 0.683968 -s 1 -d 2 -p tcp -e 960 -c 0 -i 30 -a 0 -x {0.0 2.0 16 ------- null}
h -t 0.683968 -s 1 -d 2 -p tcp -e 960 -c 0 -i 30 -a 0 -x {0.0 2.0 -1 ------- null}
r -t 0.691968 -s 2 -d 1 -p ack -e 40 -c 0 -i 27 -a 0 -x {2.0 0.0 13 ------- null}
+ -t 0.691968 -s 1 -d 0 -p ack -e 40 -c 0 -i 27 -a 0 -x {2.0 0.0 13 ------- null}
- -t 0.691968 -s 1 -d 0 -p ack -e 40 -c 0 -i 27 -a 0 -x {2.0 0.0 13 ------- null}
h -t 0.691968 -s 1 -d 0 -p ack -e 40 -c 0 -i 27 -a 0 -x {2.0 0.0 -1 ------- null}
r -t 0.6924 -s 1 -d 0 -p ack -e 40 -c 0 -i 26 -a 0 -x {2.0 0.0 12 ------- null}
+ -t 0.6924 -s 0 -d 1 -p tcp -e 960 -c 0 -i 32 -a 0 -x {0.0 2.0 18 ------- null}
- -t 0.6924 -s 0 -d 1 -p tcp -e 960 -c 0 -i 32 -a 0 -x {0.0 2.0 18 ------- null}
h -t 0.6924 -s 0 -d 1 -p tcp -e 960 -c 0 -i 32 -a 0 -x {0.0 2.0 -1 ------- null}
r -t 0.693568 -s 0 -d 1 -p tcp -e 960 -c 0 -i 31 -a 0 -x {0.0 2.0 17 ------- null}
+ -t 0.693568 -s 1 -d 2 -p tcp -e 960 -c 0 -i 31 -a 0 -x {0.0 2.0 17 ------- null}
- -t 0.693568 -s 1 -d 2 -p tcp -e 960 -c 0 -i 31 -a 0 -x {0.0 2.0 17 ------- null}
h -t 0.693568 -s 1 -d 2 -p tcp -e 960 -c 0 -i 31 -a 0 -x {0.0 2.0 -1 ------- null}
r -t 0.702 -s 1 -d 0 -p ack -e 40 -c 0 -i 27 -a 0 -x {2.0 0.0 13 ------- null}
+ -t 0.702 -s 0 -d 1 -p tcp -e 960 -c 0 -i 33 -a 0 -x {0.0 2.0 19 ------- null}
- -t 0.702 -s 0 -d 1 -p tcp -e 960 -c 0 -i 33 -a 0 -x {0.0 2.0 19 ------- null}
h -t 0.702 -s 0 -d 1 -p tcp -e 960 -c 0 -i 33 -a 0 -x {0.0 2.0 -1 ------- null}
r -t 0.703168 -s 0 -d 1 -p tcp -e 960 -c 0 -i 32 -a 0 -x {0.0 2.0 18 ------- null}
+ -t 0.703168 -s 1 -d 2 -p tcp -e 960 -c 0 -i 32 -a 0 -x {0.0 2.0 18 ------- null}
- -t 0.703168 -s 1 -d 2 -p tcp -e 960 -c 0 -i 32 -a 0 -x {0.0 2.0 18 ------- null}
h -t 0.703168 -s 1 -d 2 -p tcp -e 960 -c 0 -i 32 -a 0 -x {0.0 2.0 -1 ------- null}
r -t 0.712768 -s 0 -d 1 -p tcp -e 960 -c 0 -i 33 -a 0 -x {0.0 2.0 19 ------- null}
+ -t 0.712768 -s 1 -d 2 -p tcp -e 960 -c 0 -i 33 -a 0 -x {0.0 2.0 19 ------- null}
- -t 0.712768 -s 1 -d 2 -p tcp -e 960 -c 0 -i 33 -a 0 -x {0.0 2.0 19 ------- null}
h -t 0.712768 -s 1 -d 2 -p tcp -e 960 -c 0 -i 33 -a 0 -x {0.0 2.0 -1 ------- null}
r -t 0.724368 -s 1 -d 2 -p tcp -e 960 -c 0 -i 28 -a 0 -x {0.0 2.0 14 ------- null}
+ -t 0.724368 -s 2 -d 1 -p ack -e 40 -c 0 -i 34 -a 0 -x {2.0 0.0 14 ------- null}
- -t 0.724368 -s 2 -d 1 -p ack -e 40 -c 0 -i 34 -a 0 -x {2.0 0.0 14 ------- null}
h -t 0.724368 -s 2 -d 1 -p ack -e 40 -c 0 -i 34 -a 0 -x {2.0 0.0 -1 ------- null}
r -t 0.733968 -s 1 -d 2 -p tcp -e 960 -c 0 -i 29 -a 0 -x {0.0 2.0 15 ------- null}
+ -t 0.733968 -s 2 -d 1 -p ack -e 40 -c 0 -i 35 -a 0 -x {2.0 0.0 15 ------- null}
- -t 0.733968 -s 2 -d 1 -p ack -e 40 -c 0 -i 35 -a 0 -x {2.0 0.0 15 ------- null}
h -t 0.733968 -s 2 -d 1 -p ack -e 40 -c 0 -i 35 -a 0 -x {2.0 0.0 -1 ------- null}
r -t 0.743568 -s 1 -d 2 -p tcp -e 960 -c 0 -i 30 -a 0 -x {0.0 2.0 16 ------- null}
+ -t 0.743568 -s 2 -d 1 -p ack -e 40 -c 0 -i 36 -a 0 -x {2.0 0.0 16 ------- null}
- -t 0.743568 -s 2 -d 1 -p ack -e 40 -c 0 -i 36 -a 0 -x {2.0 0.0 16 ------- null}
h -t 0.743568 -s 2 -d 1 -p ack -e 40 -c 0 -i 36 -a 0 -x {2.0 0.0 -1 ------- null}
r -t 0.753168 -s 1 -d 2 -p tcp -e 960 -c 0 -i 31 -a 0 -x {0.0 2.0 17 ------- null}
+ -t 0.753168 -s 2 -d 1 -p ack -e 40 -c 0 -i 37 -a 0 -x {2.0 0.0 17 ------- null}
- -t 0.753168 -s 2 -d 1 -p ack -e 40 -c 0 -i 37 -a 0 -x {2.0 0.0 17 ------- null}
h -t 0.753168 -s 2 -d 1 -p ack -e 40 -c 0 -i 37 -a 0 -x {2.0 0.0 -1 ------- null}
r -t 0.762768 -s 1 -d 2 -p tcp -e 960 -c 0 -i 32 -a 0 -x {0.0 2.0 18 ------- null}
+ -t 0.762768 -s 2 -d 1 -p ack -e 40 -c 0 -i 38 -a 0 -x {2.0 0.0 18 ------- null}
- -t 0.762768 -s 2 -d 1 -p ack -e 40 -c 0 -i 38 -a 0 -x {2.0 0.0 18 ------- null}
h -t 0.762768 -s 2 -d 1 -p ack -e 40 -c 0 -i 38 -a 0 -x {2.0 0.0 -1 ------- null}
r -t 0.772368 -s 1 -d 2 -p tcp -e 960 -c 0 -i 33 -a 0 -x {0.0 2.0 19 ------- null}
+ -t 0.772368 -s 2 -d 1 -p ack -e 40 -c 0 -i 39 -a 0 -x {2.0 0.0 19 ------- null}
- -t 0.772368 -s 2 -d 1 -p ack -e 40 -c 0 -i 39 -a 0 -x {2.0 0.0 19 ------- null}
h -t 0.772368 -s 2 -d 1 -p ack -e 40 -c 0 -i 39 -a 0 -x {2.0 0.0 -1 ------- null}
r -t 0.774768 -s 2 -d 1 -p ack -e 40 -c 0 -i 34 -a 0 -x {2.0 0.0 14 ------- null}
+ -t 0.774768 -s 1 -d 0 -p ack -e 40 -c 0 -i 34 -a 0 -x {2.0 0.0 14 ------- null}
- -t 0.774768 -s 1 -d 0 -p ack -e 40 -c 0 -i 34 -a 0 -x {2.0 0.0 14 ------- null}
h -t 0.774768 -s 1 -d 0 -p ack -e 40 -c 0 -i 34 -a 0 -x {2.0 0.0 -1 ------- null}
r -t 0.784368 -s 2 -d 1 -p ack -e 40 -c 0 -i 35 -a 0 -x {2.0 0.0 15 ------- null}
+ -t 0.784368 -s 1 -d 0 -p ack -e 40 -c 0 -i 35 -a 0 -x {2.0 0.0 15 ------- null}
- -t 0.784368 -s 1 -d 0 -p ack -e 40 -c 0 -i 35 -a 0 -x {2.0 0.0 15 ------- null}
h -t 0.784368 -s 1 -d 0 -p ack -e 40 -c 0 -i 35 -a 0 -x {2.0 0.0 -1 ------- null}
r -t 0.7848 -s 1 -d 0 -p ack -e 40 -c 0 -i 34 -a 0 -x {2.0 0.0 14 ------- null}
+ -t 0.7848 -s 0 -d 1 -p tcp -e 960 -c 0 -i 40 -a 0 -x {0.0 2.0 20 ------- null}
- -t 0.7848 -s 0 -d 1 -p tcp -e 960 -c 0 -i 40 -a 0 -x {0.0 2.0 20 ------- null}
h -t 0.7848 -s 0 -d 1 -p tcp -e 960 -c 0 -i 40 -a 0 -x {0.0 2.0 -1 ------- null}
+ -t 0.7848 -s 0 -d 1 -p tcp -e 960 -c 0 -i 41 -a 0 -x {0.0 2.0 21 ------- null}
- -t 0.785568 -s 0 -d 1 -p tcp -e 960 -c 0 -i 41 -a 0 -x {0.0 2.0 21 ------- null}
h -t 0.785568 -s 0 -d 1 -p tcp -e 960 -c 0 -i 41 -a 0 -x {0.0 2.0 -1 ------- null}
r -t 0.793968 -s 2 -d 1 -p ack -e 40 -c 0 -i 36 -a 0 -x {2.0 0.0 16 ------- null}
+ -t 0.793968 -s 1 -d 0 -p ack -e 40 -c 0 -i 36 -a 0 -x {2.0 0.0 16 ------- null}
- -t 0.793968 -s 1 -d 0 -p ack -e 40 -c 0 -i 36 -a 0 -x {2.0 0.0 16 ------- null}
h -t 0.793968 -s 1 -d 0 -p ack -e 40 -c 0 -i 36 -a 0 -x {2.0 0.0 -1 ------- null}
r -t 0.7944 -s 1 -d 0 -p ack -e 40 -c 0 -i 35 -a 0 -x {2.0 0.0 15 ------- null}
+ -t 0.7944 -s 0 -d 1 -p tcp -e 960 -c 0 -i 42 -a 0 -x {0.0 2.0 22 ------- null}
- -t 0.7944 -s 0 -d 1 -p tcp -e 960 -c 0 -i 42 -a 0 -x {0.0 2.0 22 ------- null}
h -t 0.7944 -s 0 -d 1 -p tcp -e 960 -c 0 -i 42 -a 0 -x {0.0 2.0 -1 ------- null}
+ -t 0.7944 -s 0 -d 1 -p tcp -e 960 -c 0 -i 43 -a 0 -x {0.0 2.0 23 ------- null}
- -t 0.795168 -s 0 -d 1 -p tcp -e 960 -c 0 -i 43 -a 0 -x {0.0 2.0 23 ------- null}
h -t 0.795168 -s 0 -d 1 -p tcp -e 960 -c 0 -i 43 -a 0 -x {0.0 2.0 -1 ------- null}
r -t 0.795568 -s 0 -d 1 -p tcp -e 960 -c 0 -i 40 -a 0 -x {0.0 2.0 20 ------- null}
+ -t 0.795568 -s 1 -d 2 -p tcp -e 960 -c 0 -i 40 -a 0 -x {0.0 2.0 20 ------- null}
- -t 0.795568 -s 1 -d 2 -p tcp -e 960 -c 0 -i 40 -a 0 -x {0.0 2.0 20 ------- null}
h -t 0.795568 -s 1 -d 2 -p tcp -e 960 -c 0 -i 40 -a 0 -x {0.0 2.0 -1 ------- null}
r -t 0.796336 -s 0 -d 1 -p tcp -e 960 -c 0 -i 41 -a 0 -x {0.0 2.0 21 ------- null}
+ -t 0.796336 -s 1 -d 2 -p tcp -e 960 -c 0 -i 41 -a 0 -x {0.0 2.0 21 ------- null}
r -t 0.803568 -s 2 -d 1 -p ack -e 40 -c 0 -i 37 -a 0 -x {2.0 0.0 17 ------- null}
+ -t 0.803568 -s 1 -d 0 -p ack -e 40 -c 0 -i 37 -a 0 -x {2.0 0.0 17 ------- null}
- -t 0.803568 -s 1 -d 0 -p ack -e 40 -c 0 -i 37 -a 0 -x {2.0 0.0 17 ------- null}
h -t 0.803568 -s 1 -d 0 -p ack -e 40 -c 0 -i 37 -a 0 -x {2.0 0.0 -1 ------- null}
r -t 0.804 -s 1 -d 0 -p ack -e 40 -c 0 -i 36 -a 0 -x {2.0 0.0 16 ------- null}
+ -t 0.804 -s 0 -d 1 -p tcp -e 960 -c 0 -i 44 -a 0 -x {0.0 2.0 24 ------- null}
- -t 0.804 -s 0 -d 1 -p tcp -e 960 -c 0 -i 44 -a 0 -x {0.0 2.0 24 ------- null}
h -t 0.804 -s 0 -d 1 -p tcp -e 960 -c 0 -i 44 -a 0 -x {0.0 2.0 -1 ------- null}
+ -t 0.804 -s 0 -d 1 -p tcp -e 960 -c 0 -i 45 -a 0 -x {0.0 2.0 25 ------- null}
- -t 0.804768 -s 0 -d 1 -p tcp -e 960 -c 0 -i 45 -a 0 -x {0.0 2.0 25 ------- null}
h -t 0.804768 -s 0 -d 1 -p tcp -e 960 -c 0 -i 45 -a 0 -x {0.0 2.0 -1 ------- null}
r -t 0.805168 -s 0 -d 1 -p tcp -e 960 -c 0 -i 42 -a 0 -x {0.0 2.0 22 ------- null}
+ -t 0.805168 -s 1 -d 2 -p tcp -e 960 -c 0 -i 42 -a 0 -x {0.0 2.0 22 ------- null}
- -t 0.805168 -s 1 -d 2 -p tcp -e 960 -c 0 -i 41 -a 0 -x {0.0 2.0 21 ------- null}
h -t 0.805168 -s 1 -d 2 -p tcp -e 960 -c 0 -i 41 -a 0 -x {0.0 2.0 -1 ------- null}
r -t 0.805936 -s 0 -d 1 -p tcp -e 960 -c 0 -i 43 -a 0 -x {0.0 2.0 23 ------- null}
+ -t 0.805936 -s 1 -d 2 -p tcp -e 960 -c 0 -i 43 -a 0 -x {0.0 2.0 23 ------- null}
r -t 0.813168 -s 2 -d 1 -p ack -e 40 -c 0 -i 38 -a 0 -x {2.0 0.0 18 ------- null}
+ -t 0.813168 -s 1 -d 0 -p ack -e 40 -c 0 -i 38 -a 0 -x {2.0 0.0 18 ------- null}
- -t 0.813168 -s 1 -d 0 -p ack -e 40 -c 0 -i 38 -a 0 -x {2.0 0.0 18 ------- null}
h -t 0.813168 -s 1 -d 0 -p ack -e 40 -c 0 -i 38 -a 0 -x {2.0 0.0 -1 ------- null}
r -t 0.8136 -s 1 -d 0 -p ack -e 40 -c 0 -i 37 -a 0 -x {2.0 0.0 17 ------- null}
+ -t 0.8136 -s 0 -d 1 -p tcp -e 960 -c 0 -i 46 -a 0 -x {0.0 2.0 26 ------- null}
- -t 0.8136 -s 0 -d 1 -p tcp -e 960 -c 0 -i 46 -a 0 -x {0.0 2.0 26 ------- null}
h -t 0.8136 -s 0 -d 1 -p tcp -e 960 -c 0 -i 46 -a 0 -x {0.0 2.0 -1 ------- null}
+ -t 0.8136 -s 0 -d 1 -p tcp -e 960 -c 0 -i 47 -a 0 -x {0.0 2.0 27 ------- null}
- -t 0.814368 -s 0 -d 1 -p tcp -e 960 -c 0 -i 47 -a 0 -x {0.0 2.0 27 ------- null}
h -t 0.814368 -s 0 -d 1 -p tcp -e 960 -c 0 -i 47 -a 0 -x {0.0 2.0 -1 ------- null}
r -t 0.814768 -s 0 -d 1 -p tcp -e 960 -c 0 -i 44 -a 0 -x {0.0 2.0 24 ------- null}
+ -t 0.814768 -s 1 -d 2 -p tcp -e 960 -c 0 -i 44 -a 0 -x {0.0 2.0 24 ------- null}
- -t 0.814768 -s 1 -d 2 -p tcp -e 960 -c 0 -i 42 -a 0 -x {0.0 2.0 22 ------- null}
h -t 0.814768 -s 1 -d 2 -p tcp -e 960 -c 0 -i 42 -a 0 -x {0.0 2.0 -1 ------- null}
r -t 0.815536 -s 0 -d 1 -p tcp -e 960 -c 0 -i 45 -a 0 -x {0.0 2.0 25 ------- null}
+ -t 0.815536 -s 1 -d 2 -p tcp -e 960 -c 0 -i 45 -a 0 -x {0.0 2.0 25 ------- null}
r -t 0.822768 -s 2 -d 1 -p ack -e 40 -c 0 -i 39 -a 0 -x {2.0 0.0 19 ------- null}
+ -t 0.822768 -s 1 -d 0 -p ack -e 40 -c 0 -i 39 -a 0 -x {2.0 0.0 19 ------- null}
- -t 0.822768 -s 1 -d 0 -p ack -e 40 -c 0 -i 39 -a 0 -x {2.0 0.0 19 ------- null}
h -t 0.822768 -s 1 -d 0 -p ack -e 40 -c 0 -i 39 -a 0 -x {2.0 0.0 -1 ------- null}
r -t 0.8232 -s 1 -d 0 -p ack -e 40 -c 0 -i 38 -a 0 -x {2.0 0.0 18 ------- null}
+ -t 0.8232 -s 0 -d 1 -p tcp -e 960 -c 0 -i 48 -a 0 -x {0.0 2.0 28 ------- null}