0.00000  0  0  -1 -1 cwnd_ 1.000 
0.00000  0  0  -1 -1 ssthresh_ 20
0.00000  0  0  -1 -1 ack_ -1
0.00000  0  0  -1 -1 maxseq_ -1
0.00000  0  0  2  0  ssthresh_ 100
+ 0 0 1 tcp 960 ------- 0 0.0 2.0 0 0
- 0 0 1 tcp 960 ------- 0 0.0 2.0 0 0
0.00000  0  0  2  0  maxseq_ 0
r 0.010768 0 1 tcp 960 ------- 0 0.0 2.0 0 0
+ 0.010768 1 2 tcp 960 ------- 0 0.0 2.0 0 0
- 0.010768 1 2 tcp 960 ------- 0 0.0 2.0 0 0
r 0.070368 1 2 tcp 960 ------- 0 0.0 2.0 0 0
+ 0.070368 2 1 ack 40 ------- 0 2.0 0.0 0 1
- 0.070368 2 1 ack 40 ------- 0 2.0 0.0 0 1
r 0.120768 2 1 ack 40 ------- 0 2.0 0.0 0 1
+ 0.120768 1 0 ack 40 ------- 0 2.0 0.0 0 1
- 0.120768 1 0 ack 40 ------- 0 2.0 0.0 0 1
r 0.1308 1 0 ack 40 ------- 0 2.0 0.0 0 1
0.13080  0  0  2  0  ack_ 0
+ 0.1308 0 1 tcp 960 ------- 0 0.0 2.0 1 2
- 0.1308 0 1 tcp 960 ------- 0 0.0 2.0 1 2
0.13080  0  0  2  0  maxseq_ 1
r 0.141568 0 1 tcp 960 ------- 0 0.0 2.0 1 2
+ 0.141568 1 2 tcp 960 ------- 0 0.0 2.0 1 2
- 0.141568 1 2 tcp 960 ------- 0 0.0 2.0 1 2
r 0.201168 1 2 tcp 960 ------- 0 0.0 2.0 1 2
+ 0.201168 2 1 ack 40 ------- 0 2.0 0.0 1 3
- 0.201168 2 1 ack 40 ------- 0 2.0 0.0 1 3
r 0.251568 2 1 ack 40 ------- 0 2.0 0.0 1 3
+ 0.251568 1 0 ack 40 ------- 0 2.0 0.0 1 3
- 0.251568 1 0 ack 40 ------- 0 2.0 0.0 1 3
r 0.2616 1 0 ack 40 ------- 0 2.0 0.0 1 3
0.26160  0  0  2  0  cwnd_ 2.000 
0.26160  0  0  2  0  ack_ 1
0.26160  0  0  2  0  cwnd_ 3.000 
+ 0.2616 0 1 tcp 960 ------- 0 0.0 2.0 2 4
- 0.2616 0 1 tcp 960 ------- 0 0.0 2.0 2 4
0.26160  0  0  2  0  maxseq_ 2
+ 0.2616 0 1 tcp 960 ------- 0 0.0 2.0 3 5
0.26160  0  0  2  0  maxseq_ 3
+ 0.2616 0 1 tcp 960 ------- 0 0.0 2.0 4 6
0.26160  0  0  2  0  maxseq_ 4
- 0.262368 0 1 tcp 960 ------- 0 0.0 2.0 3 5
- 0.263136 0 1 tcp 960 ------- 0 0.0 2.0 4 6
r 0.272368 0 1 tcp 960 ------- 0 0.0 2.0 2 4
+ 0.272368 1 2 tcp 960 ------- 0 0.0 2.0 2 4
- 0.272368 1 2 tcp 960 ------- 0 0.0 2.0 2 4
r 0.273136 0 1 tcp 960 ------- 0 0.0 2.0 3 5
+ 0.273136 1 2 tcp 960 ------- 0 0.0 2.0 3 5
r 0.273904 0 1 tcp 960 ------- 0 0.0 2.0 4 6
+ 0.273904 1 2 tcp 960 ------- 0 0.0 2.0 4 6
- 0.281968 1 2 tcp 960 ------- 0 0.0 2.0 3 5
- 0.291568 1 2 tcp 960 ------- 0 0.0 2.0 4 6
r 0.331968 1 2 tcp 960 ------- 0 0.0 2.0 2 4
+ 0.331968 2 1 ack 40 ------- 0 2.0 0.0 2 7
- 0.331968 2 1 ack 40 ------- 0 2.0 0.0 2 7
r 0.341568 1 2 tcp 960 ------- 0 0.0 2.0 3 5
+ 0.341568 2 1 ack 40 ------- 0 2.0 0.0 3 8
- 0.341568 2 1 ack 40 ------- 0 2.0 0.0 3 8
r 0.351168 1 2 tcp 960 ------- 0 0.0 2.0 4 6
+ 0.351168 2 1 ack 40 ------- 0 2.0 0.0 4 9
- 0.351168 2 1 ack 40 ------- 0 2.0 0.0 4 9
r 0.382368 2 1 ack 40 ------- 0 2.0 0.0 2 7
+ 0.382368 1 0 ack 40 ------- 0 2.0 0.0 2 7
- 0.382368 1 0 ack 40 ------- 0 2.0 0.0 2 7
r 0.391968 2 1 ack 40 ------- 0 2.0 0.0 3 8
+ 0.391968 1 0 ack 40 ------- 0 2.0 0.0 3 8
- 0.391968 1 0 ack 40 ------- 0 2.0 0.0 3 8
r 0.3924 1 0 ack 40 ------- 0 2.0 0.0 2 7
0.39240  0  0  2  0  ack_ 2
+ 0.3924 0 1 tcp 960 ------- 0 0.0 2.0 5 10
- 0.3924 0 1 tcp 960 ------- 0 0.0 2.0 5 10
0.39240  0  0  2  0  maxseq_ 5
r 0.401568 2 1 ack 40 ------- 0 2.0 0.0 4 9
+ 0.401568 1 0 ack 40 ------- 0 2.0 0.0 4 9
- 0.401568 1 0 ack 40 ------- 0 2.0 0.0 4 9
r 0.402 1 0 ack 40 ------- 0 2.0 0.0 3 8
0.40200  0  0  2  0  ack_ 3
+ 0.402 0 1 tcp 960 ------- 0 0.0 2.0 6 11
- 0.402 0 1 tcp 960 ------- 0 0.0 2.0 6 11
0.40200  0  0  2  0  maxseq_ 6
r 0.403168 0 1 tcp 960 ------- 0 0.0 2.0 5 10
+ 0.403168 1 2 tcp 960 ------- 0 0.0 2.0 5 10
- 0.403168 1 2 tcp 960 ------- 0 0.0 2.0 5 10
r 0.4116 1 0 ack 40 ------- 0 2.0 0.0 4 9
0.41160  0  0  2  0  ack_ 4
+ 0.4116 0 1 tcp 960 ------- 0 0.0 2.0 7 12
- 0.4116 0 1 tcp 960 ------- 0 0.0 2.0 7 12
0.41160  0  0  2  0  maxseq_ 7
r 0.412768 0 1 tcp 960 ------- 0 0.0 2.0 6 11
+ 0.412768 1 2 tcp 960 ------- 0 0.0 2.0 6 11
- 0.412768 1 2 tcp 960 ------- 0 0.0 2.0 6 11
r 0.422368 0 1 tcp 960 ------- 0 0.0 2.0 7 12
+ 0.422368 1 2 tcp 960 ------- 0 0.0 2.0 7 12
- 0.422368 1 2 tcp 960 ------- 0 0.0 2.0 7 12
r 0.462768 1 2 tcp 960 ------- 0 0.0 2.0 5 10
+ 0.462768 2 1 ack 40 ------- 0 2.0 0.0 5 13
- 0.462768 2 1 ack 40 ------- 0 2.0 0.0 5 13
r 0.472368 1 2 tcp 960 ------- 0 0.0 2.0 6 11
+ 0.472368 2 1 ack 40 ------- 0 2.0 0.0 6 14
- 0.472368 2 1 ack 40 ------- 0 2.0 0.0 6 14
r 0.481968 1 2 tcp 960 ------- 0 0.0 2.0 7 12
+ 0.481968 2 1 ack 40 ------- 0 2.0 0.0 7 15
- 0.481968 2 1 ack 40 ------- 0 2.0 0.0 7 15
r 0.513168 2 1 ack 40 ------- 0 2.0 0.0 5 13
+ 0.513168 1 0 ack 40 ------- 0 2.0 0.0 5 13
- 0.513168 1 0 ack 40 ------- 0 2.0 0.0 5 13
r 0.522768 2 1 ack 40 ------- 0 2.0 0.0 6 14
+ 0.522768 1 0 ack 40 ------- 0 2.0 0.0 6 14
- 0.522768 1 0 ack 40 ------- 0 2.0 0.0 6 14
r 0.5232 1 0 ack 40 ------- 0 2.0 0.0 5 13
0.52320  0  0  2  0  ack_ 5
0.52320  0  0  2  0  cwnd_ 4.000 
+ 0.5232 0 1 tcp 960 ------- 0 0.0 2.0 8 16
- 0.5232 0 1 tcp 960 ------- 0 0.0 2.0 8 16
0.52320  0  0  2  0  maxseq_ 8
+ 0.5232 0 1 tcp 960 ------- 0 0.0 2.0 9 17
0.52320  0  0  2  0  maxseq_ 9
- 0.523968 0 1 tcp 960 ------- 0 0.0 2.0 9 17
r 0.532368 2 1 ack 40 ------- 0 2.0 0.0 7 15
+ 0.532368 1 0 ack 40 ------- 0 2.0 0.0 7 15
- 0.532368 1 0 ack 40 ------- 0 2.0 0.0 7 15
r 0.5328 1 0 ack 40 ------- 0 2.0 0.0 6 14
0.53280  0  0  2  0  ack_ 6
0.53280  0  0  2  0  cwnd_ 5.000 
+ 0.5328 0 1 tcp 960 ------- 0 0.0 2.0 10 18
- 0.5328 0 1 tcp 960 ------- 0 0.0 2.0 10 18
0.53280  0  0  2  0  maxseq_ 10
+ 0.5328 0 1 tcp 960 ------- 0 0.0 2.0 11 19
0.53280  0  0  2  0  maxseq_ 11
- 0.533568 0 1 tcp 960 ------- 0 0.0 2.0 11 19
r 0.533968 0 1 tcp 960 ------- 0 0.0 2.0 8 16
+ 0.533968 1 2 tcp 960 ------- 0 0.0 2.0 8 16
- 0.533968 1 2 tcp 960 ------- 0 0.0 2.0 8 16
r 0.534736 0 1 tcp 960 ------- 0 0.0 2.0 9 17
+ 0.534736 1 2 tcp 960 ------- 0 0.0 2.0 9 17
r 0.5424 1 0 ack 40 ------- 0 2.0 0.0 7 15
0.54240  0  0  2  0  ack_ 7
0.54240  0  0  2  0  cwnd_ 6.000 
+ 0.5424 0 1 tcp 960 ------- 0 0.0 2.0 12 20
- 0.5424 0 1 tcp 960 ------- 0 0.0 2.0 12 20
0.54240  0  0  2  0  maxseq_ 12
+ 0.5424 0 1 tcp 960 ------- 0 0.0 2.0 13 21
0.54240  0  0  2  0  maxseq_ 13
- 0.543168 0 1 tcp 960 ------- 0 0.0 2.0 13 21
r 0.543568 0 1 tcp 960 ------- 0 0.0 2.0 10 18
+ 0.543568 1 2 tcp 960 ------- 0 0.0 2.0 10 18
- 0.543568 1 2 tcp 960 ------- 0 0.0 2.0 9 17
r 0.544336 0 1 tcp 960 ------- 0 0.0 2.0 11 19
+ 0.544336 1 2 tcp 960 ------- 0 0.0 2.0 11 19
r 0.553168 0 1 tcp 960 ------- 0 0.0 2.0 12 20
+ 0.553168 1 2 tcp 960 ------- 0 0.0 2.0 12 20
- 0.553168 1 2 tcp 960 ------- 0 0.0 2.0 10 18
r 0.553936 0 1 tcp 960 ------- 0 0.0 2.0 13 21
+ 0.553936 1 2 tcp 960 ------- 0 0.0 2.0 13 21
- 0.562768 1 2 tcp 960 ------- 0 0.0 2.0 11 19
- 0.572368 1 2 tcp 960 ------- 0 0.0 2.0 12 20
- 0.581968 1 2 tcp 960 ------- 0 0.0 2.0 13 21
r 0.593568 1 2 tcp 960 ------- 0 0.0 2.0 8 16
+ 0.593568 2 1 ack 40 ------- 0 2.0 0.0 8 22
- 0.593568 2 1 ack 40 ------- 0 2.0 0.0 8 22
r 0.603168 1 2 tcp 960 ------- 0 0.0 2.0 9 17
+ 0.603168 2 1 ack 40 ------- 0 2.0 0.0 9 23
- 0.603168 2 1 ack 40 ------- 0 2.0 0.0 9 23
r 0.612768 1 2 tcp 960 ------- 0 0.0 2.0 10 18
+ 0.612768 2 1 ack 40 ------- 0 2.0 0.0 10 24
- 0.612768 2 1 ack 40 ------- 0 2.0 0.0 10 24
r 0.622368 1 2 tcp 960 ------- 0 0.0 2.0 11 19
+ 0.622368 2 1 ack 40 ------- 0 2.0 0.0 11 25
- 0.622368 2 1 ack 40 ------- 0 2.0 0.0 11 25
r 0.631968 1 2 tcp 960 ------- 0 0.0 2.0 12 20
+ 0.631968 2 1 ack 40 ------- 0 2.0 0.0 12 26
- 0.631968 2 1 ack 40 ------- 0 2.0 0.0 12 26
r 0.641568 1 2 tcp 960 ------- 0 0.0 2.0 13 21
+ 0.641568 2 1 ack 40 ------- 0 2.0 0.0 13 27
- 0.641568 2 1 ack 40 ------- 0 2.0 0.0 13 27
r 0.643968 2 1 ack 40 ------- 0 2.0 0.0 8 22
+ 0.643968 1 0 ack 40 ------- 0 2.0 0.0 8 22
- 0.643968 1 0 ack 40 ------- 0 2.0 0.0 8 22
r 0.653568 2 1 ack 40 ------- 0 2.0 0.0 9 23
+ 0.653568 1 0 ack 40 ------- 0 2.0 0.0 9 23
- 0.653568 1 0 ack 40 ------- 0 2.0 0.0 9 23
r 0.654 1 0 ack 40 ------- 0 2.0 0.0 8 22
0.65400  0  0  2  0  ack_ 8
+ 0.654 0 1 tcp 960 ------- 0 0.0 2.0 14 28
- 0.654 0 1 tcp 960 ------- 0 0.0 2.0 14 28
0.65400  0  0  2  0  maxseq_ 14
r 0.663168 2 1 ack 40 ------- 0 2.0 0.0 10 24
+ 0.663168 1 0 ack 40 ------- 0 2.0 0.0 10 24
- 0.663168 1 0 ack 40 ------- 0 2.0 0.0 10 24
r 0.6636 1 0 ack 40 ------- 0 2.0 0.0 9 23
0.66360  0  0  2  0  ack_ 9
+ 0.6636 0 1 tcp 960 ------- 0 0.0 2.0 15 29
- 0.6636 0 1 tcp 960 ------- 0 0.0 2.0 15 29
0.66360  0  0  2  0  maxseq_ 15
r 0.664768 0 1 tcp 960 ------- 0 0.0 2.0 14 28
+ 0.664768 1 2 tcp 960 ------- 0 0.0 2.0 14 28
- 0.664768 1 2 tcp 960 ------- 0 0.0 2.0 14 28
r 0.672768 2 1 ack 40 ------- 0 2.0 0.0 11 25
+ 0.672768 1 0 ack 40 ------- 0 2.0 0.0 11 25
- 0.672768 1 0 ack 40 ------- 0 2.0 0.0 11 25
r 0.6732 1 0 ack 40 ------- 0 2.0 0.0 10 24
0.67320  0  0  2  0  ack_ 10
+ 0.6732 0 1 tcp 960 ------- 0 0.0 2.0 16 30
- 0.6732 0 1 tcp 960 ------- 0 0.0 2.0 16 30
0.67320  0  0  2  0  maxseq_ 16
r 0.674368 0 1 tcp 960 ------- 0 0.0 2.0 15 29
+ 0.674368 1 2 tcp 960 ------- 0 0.0 2.0 15 29
- 0.674368 1 2 tcp 960 ------- 0 0.0 2.0 15 29
r 0.682368 2 1 ack 40 ------- 0 2.0 0.0 12 26
+ 0.682368 1 0 ack 40 ------- 0 2.0 0.0 12 26
- 0.682368 1 0 ack 40 ------- 0 2.0 0.0 12 26
r 0.6828 1 0 ack 40 ------- 0 2.0 0.0 11 25
0.68280  0  0  2  0  ack_ 11
+ 0.6828 0 1 tcp 960 ------- 0 0.0 2.0 17 31
- 0.6828 0 1 tcp 960 ------- 0 0.0 2.0 17 31
0.68280  0  0  2  0  maxseq_ 17
r 0.683968 0 1 tcp 960 ------- 0 0.0 2.0 16 30
+ 0.683968 1 2 tcp 960 ------- 0 0.0 2.0 16 30
- 0.683968 1 2 tcp 960 ------- 0 0.0 2.0 16 30
r 0.691968 2 1 ack 40 ------- 0 2.0 0.0 13 27
+ 0.691968 1 0 ack 40 ------- 0 2.0 0.0 13 27
- 0.691968 1 0 ack 40 ------- 0 2.0 0.0 13 27
r 0.6924 1 0 ack 40 ------- 0 2.0 0.0 12 26
0.69240  0  0  2  0  ack_ 12
+ 0.6924 0 1 tcp 960 ------- 0 0.0 2.0 18 32
- 0.6924 0 1 tcp 960 ------- 0 0.0 2.0 18 32
0.69240  0  0  2  0  maxseq_ 18
r 0.693568 0 1 tcp 960 ------- 0 0.0 2.0 17 31
+ 0.693568 1 2 tcp 960 ------- 0 0.0 2.0 17 31
- 0.693568 1 2 tcp 960 ------- 0 0.0 2.0 17 31
r 0.702 1 0 ack 40 ------- 0 2.0 0.0 13 27
0.70200  0  0  2  0  ack_ 13
+ 0.702 0 1 tcp 960 ------- 0 0.0 2.0 19 33
- 0.702 0 1 tcp 960 ------- 0 0.0 2.0 19 33
0.70200  0  0  2  0  maxseq_ 19
r 0.703168 0 1 tcp 960 ------- 0 0.0 2.0 18 32
+ 0.703168 1 2 tcp 960 ------- 0 0.0 2.0 18 32
- 0.703168 1 2 tcp 960 ------- 0 0.0 2.0 18 32
r 0.712768 0 1 tcp 960 ------- 0 0.0 2.0 19 33
+ 0.712768 1 2 tcp 960 ------- 0 0.0 2.0 19 33
- 0.712768 1 2 tcp 960 ------- 0 0.0 2.0 19 33
r 0.724368 1 2 tcp 960 ------- 0 0.0 2.0 14 28
+ 0.724368 2 1 ack 40 ------- 0 2.0 0.0 14 34
- 0.724368 2 1 ack 40 ------- 0 2.0 0.0 14 34
r 0.733968 1 2 tcp 960 ------- 0 0.0 2.0 15 29
+ 0.733968 2 1 ack 40 ------- 0 2.0 0.0 15 35
- 0.733968 2 1 ack 40 ------- 0 2.0 0.0 15 35
r 0.743568 1 2 tcp 960 ------- 0 0.0 2.0 16 30
+ 0.743568 2 1 ack 40 ------- 0 2.0 0.0 16 36
- 0.743568 2 1 ack 40 ------- 0 2.0 0.0 16 36
r 0.753168 1 2 tcp 960 ------- 0 0.0 2.0 17 31
+ 0.753168 2 1 ack 40 ------- 0 2.0 0.0 17 37
- 0.753168 2 1 ack 40 ------- 0 2.0 0.0 17 37
r 0.762768 1 2 tcp 960 ------- 0 0.0 2.0 18 32
+ 0.762768 2 1 ack 40 ------- 0 2.0 0.0 18 38
- 0.762768 2 1 ack 40 ------- 0 2.0 0.0 18 38
r 0.772368 1 2 tcp 960 ------- 0 0.0 2.0 19 33
+ 0.772368 2 1 ack 40 ------- 0 2.0 0.0 19 39
- 0.772368 2 1 ack 40 ------- 0 2.0 0.0 19 39
r 0.774768 2 1 ack 40 ------- 0 2.0 0.0 14 34
+ 0.774768 1 0 ack 40 ------- 0 2.0 0.0 14 34
- 0.774768 1 0 ack 40 ------- 0 2.0 0.0 14 34
r 0.784368 2 1 ack 40 ------- 0 2.0 0.0 15 35
+ 0.784368 1 0 ack 40 ------- 0 2.0 0.0 15 35
- 0.784368 1 0 ack 40 ------- 0 2.0 0.0 15 35
r 0.7848 1 0 ack 40 ------- 0 2.0 0.0 14 34
0.78480  0  0  2  0  ack_ 14
0.78480  0  0  2  0  cwnd_ 7.000 
+ 0.7848 0 1 tcp 960 ------- 0 0.0 2.0 20 40
- 0.7848 0 1 tcp 960 ------- 0 0.0 2.0 20 40
0.78480  0  0  2  0  maxseq_ 20
+ 0.7848 0 1 tcp 960 ------- 0 0.0 2.0 21 41
0.78480  0  0  2  0  maxseq_ 21
- 0.785568 0 1 tcp 960 ------- 0 0.0 2.0 21 41
r 0.793968 2 1 ack 40 ------- 0 2.0 0.0 16 36
+ 0.793968 1 0 ack 40 ------- 0 2.0 0.0 16 36
- 0.793968 1 0 ack 40 ------- 0 2.0 0.0 16 36
r 0.7944 1 0 ack 40 ------- 0 2.0 0.0 15 35
0.79440  0  0  2  0  ack_ 15
0.79440  0  0  2  0  cwnd_ 8.000 
+ 0.7944 0 1 tcp 960 ------- 0 0.0 2.0 22 42
- 0.7944 0 1 tcp 960 ------- 0 0.0 2.0 22 42
0.79440  0  0  2  0  maxseq_ 22
+ 0.7944 0 1 tcp 960 ------- 0 0.0 2.0 23 43
0.79440  0  0  2  0  maxseq_ 23
- 0.795168 0 1 tcp 960 ------- 0 0.0 2.0 23 43
r 0.795568 0 1 tcp 960 ------- 0 0.0 2.0 20 40
+ 0.795568 1 2 tcp 960 ------- 0 0.0 2.0 20 40
- 0.795568 1 2 tcp 960 ------- 0 0.0 2.0 20 40
r 0.796336 0 1 tcp 960 ------- 0 0.0 2.0 21 41
+ 0.796336 1 2 tcp 960 ------- 0 0.0 2.0 21 41
r 0.803568 2 1 ack 40 ------- 0 2.0 0.0 17 37
+ 0.803568 1 0 ack 40 ------- 0 2.0 0.0 17 37
- 0.803568 1 0 ack 40 ------- 0 2.0 0.0 17 37
r 0.804 1 0 ack 40 ------- 0 2.0 0.0 16 36
0.80400  0  0  2  0  ack_ 16
0.80400  0  0  2  0  cwnd_ 9.000 
+ 0.804 0 1 tcp 960 ------- 0 0.0 2.0 24 44
- 0.804 0 1 tcp 960 ------- 0 0.0 2.0 24 44
0.80400  0  0  2  0  maxseq_ 24
+ 0.804 0 1 tcp 960 ------- 0 0.0 2.0 25 45
0.80400  0  0  2  0  maxseq_ 25
- 0.804768 0 1 tcp 960 ------- 0 0.0 2.0 25 45
r 0.805168 0 1 tcp 960 ------- 0 0.0 2.0 22 42
+ 0.805168 1 2 tcp 960 ------- 0 0.0 2.0 22 42
- 0.805168 1 2 tcp 960 ------- 0 0.0 2.0 21 41
r 0.805936 0 1 tcp 960 ------- 0 0.0 2.0 23 43
+ 0.805936 1 2 tcp 960 ------- 0 0.0 2.0 23 43
r 0.813168 2 1 ack 40 ------- 0 2.0 0.0 18 38
+ 0.813168 1 0 ack 40 ------- 0 2.0 0.0 18 38
- 0.813168 1 0 ack 40 ------- 0 2.0 0.0 18 38
r 0.8136 1 0 ack 40 ------- 0 2.0 0.0 17 37
0.81360  0  0  2  0  ack_ 17
0.81360  0  0  2  0  cwnd_ 10.000
+ 0.8136 0 1 tcp 960 ------- 0 0.0 2.0 26 46
- 0.8136 0 1 tcp 960 ------- 0 0.0 2.0 26 46
0.81360  0  0  2  0  maxseq_ 26
+ 0.8136 0 1 tcp 960 ------- 0 0.0 2.0 27 47
0.81360  0  0  2  0  maxseq_ 27
- 0.814368 0 1 tcp 960 ------- 0 0.0 2.0 27 47
r 0.814768 0 1 tcp 960 ------- 0 0.0 2.0 24 44
+ 0.814768 1 2 tcp 960 ------- 0 0.0 2.0 24 44
- 0.814768 1 2 tcp 960 ------- 0 0.0 2.0 22 42
r 0.815536 0 1 tcp 960 ------- 0 0.0 2.0 25 45
+ 0.815536 1 2 tcp 960 ------- 0 0.0 2.0 25 45
r 0.822768 2 1 ack 40 ------- 0 2.0 0.0 19 39
+ 0.822768 1 0 ack 40 ------- 0 2.0 0.0 19 39
- 0.822768 1 0 ack 40 ------- 0 2.0 0.0 19 39
r 0.8232 1 0 ack 40 ------- 0 2.0 0.0 18 38
0.82320  0  0  2  0  ack_ 18
0.82320  0  0  2  0  cwnd_ 11.000
+ 0.8232 0 1 tcp 960 ------- 0 0.0 2.0 28 48
- 0.8232 0 1 tcp 960 ------- 0 0.0 2.0 28 48
0.82320  0  0  2  0  maxseq_ 28
+ 0.8232 0 1 tcp 960 ------- 0 0.0 2.0 29 49
0.82320  0  0  2  0  maxseq_ 29
- 0.823968 0 1 tcp 960 ------- 0 0.0 2.0 29 49
r 0.824368 0 1 tcp 960 ------- 0 0.0 2.0 26 46
+ 0.824368 1 2 tcp 960 ------- 0 0.0 2.0 26 46
- 0.824368 1 2 tcp 960 ------- 0 0.0 2.0 23 43
r 0.825136 0 1 tcp 960 ------- 0 0.0 2.0 27 47
+ 0.825136 1 2 tcp 960 ------- 0 0.0 2.0 27 47
r 0.8328 1 0 ack 40 ------- 0 2.0 0.0 19 39
0.83280  0  0  2  0  ack_ 19
0.83280  0  0  2  0  cwnd_ 12.000
+ 0.8328 0 1 tcp 960 ------- 0 0.0 2.0 30 50
- 0.8328 0 1 tcp 960 ------- 0 0.0 2.0 30 50
0.83280  0  0  2  0  maxseq_ 30
+ 0.8328 0 1 tcp 960 ------- 0 0.0 2.0 31 51
0.83280  0  0  2  0  maxseq_ 31
- 0.833568 0 1 tcp 960 ------- 0 0.0 2.0 31 51
r 0.833968 0 1 tcp 960 ------- 0 0.0 2.0 28 48
+ 0.833968 1 2 tcp 960 ------- 0 0.0 2.0 28 48
- 0.833968 1 2 tcp 960 ------- 0 0.0 2.0 24 44
r 0.834736 0 1 tcp 960 ------- 0 0.0 2.0 29 49
+ 0.834736 1 2 tcp 960 ------- 0 0.0 2.0 29 49
r 0.843568 0 1 tcp 960 ------- 0 0.0 2.0 30 50
+ 0.843568 1 2 tcp 960 ------- 0 0.0 2.0 30 50
- 0.843568 1 2 tcp 960 ------- 0 0.0 2.0 25 45
r 0.844336 0 1 tcp 960 ------- 0 0.0 2.0 31 51
+ 0.844336 1 2 tcp 960 ------- 0 0.0 2.0 31 51
- 0.853168 1 2 tcp 960 ------- 0 0.0 2.0 26 46
r 0.855168 1 2 tcp 960 ------- 0 0.0 2.0 20 40
+ 0.855168 2 1 ack 40 ------- 0 2.0 0.0 20 52
- 0.855168 2 1 ack 40 ------- 0 2.0 0.0 20 52
- 0.862768 1 2 tcp 960 ------- 0 0.0 2.0 27 47
r 0.864768 1 2 tcp 960 ------- 0 0.0 2.0 21 41
+ 0.864768 2 1 ack 40 ------- 0 2.0 0.0 21 53
- 0.864768 2 1 ack 40 ------- 0 2.0 0.0 21 53
- 0.872368 1 2 tcp 960 ------- 0 0.0 2.0 28 48
r 0.874368 1 2 tcp 960 ------- 0 0.0 2.0 22 42
+ 0.874368 2 1 ack 40 ------- 0 2.0 0.0 22 54
- 0.874368 2 1 ack 40 ------- 0 2.0 0.0 22 54
- 0.881968 1 2 tcp 960 ------- 0 0.0 2.0 29 49
r 0.883968 1 2 tcp 960 ------- 0 0.0 2.0 23 43
+ 0.883968 2 1 ack 40 ------- 0 2.0 0.0 23 55
- 0.883968 2 1 ack 40 ------- 0 2.0 0.0 23 55
- 0.891568 1 2 tcp 960 ------- 0 0.0 2.0 30 50
r 0.893568 1 2 tcp 960 ------- 0 0.0 2.0 24 44
+ 0.893568 2 1 ack 40 ------- 0 2.0 0.0 24 56
- 0.893568 2 1 ack 40 ------- 0 2.0 0.0 24 56
- 0.901168 1 2 tcp 960 ------- 0 0.0 2.0 31 51
r 0.903168 1 2 tcp 960 ------- 0 0.0 2.0 25 45
+ 0.903168 2 1 ack 40 ------- 0 2.0 0.0 25 57
- 0.903168 2 1 ack 40 ------- 0 2.0 0.0 25 57
r 0.905568 2 1 ack 40 ------- 0 2.0 0.0 20 52
+ 0.905568 1 0 ack 40 ------- 0 2.0 0.0 20 52
- 0.905568 1 0 ack 40 ------- 0 2.0 0.0 20 52
r 0.912768 1 2 tcp 960 ------- 0 0.0 2.0 26 46
+ 0.912768 2 1 ack 40 ------- 0 2.0 0.0 26 58
- 0.912768 2 1 ack 40 ------- 0 2.0 0.0 26 58
r 0.915168 2 1 ack 40 ------- 0 2.0 0.0 21 53
+ 0.915168 1 0 ack 40 ------- 0 2.0 0.0 21 53
- 0.915168 1 0 ack 40 ------- 0 2.0 0.0 21 53
r 0.9156 1 0 ack 40 ------- 0 2.0 0.0 20 52
0.91560  0  0  2  0  ack_ 20
+ 0.9156 0 1 tcp 960 ------- 0 0.0 2.0 32 59
- 0.9156 0 1 tcp 960 ------- 0 0.0 2.0 32 59
0.91560  0  0  2  0  maxseq_ 32
r 0.922368 1 2 tcp 960 ------- 0 0.0 2.0 27 47
+ 0.922368 2 1 ack 40 ------- 0 2.0 0.0 27 60
- 0.922368 2 1 ack 40 ------- 0 2.0 0.0 27 60
r 0.924768 2 1 ack 40 ------- 0 2.0 0.0 22 54
+ 0.924768 1 0 ack 40 ------- 0 2.0 0.0 22 54
- 0.924768 1 0 ack 40 ------- 0 2.0 0.0 22 54
r 0.9252 1 0 ack 40 ------- 0 2.0 0.0 21 53
0.92520  0  0  2  0  ack_ 21
+ 0.9252 0 1 tcp 960 ------- 0 0.0 2.0 33 61
- 0.9252 0 1 tcp 960 ------- 0 0.0 2.0 33 61
0.92520  0  0  2  0  maxseq_ 33
r 0.926368 0 1 tcp 960 ------- 0 0.0 2.0 32 59
+ 0.926368 1 2 tcp 960 ------- 0 0.0 2.0 32 59
- 0.926368 1 2 tcp 960 ------- 0 0.0 2.0 32 59
r 0.931968 1 2 tcp 960 ------- 0 0.0 2.0 28 48
+ 0.931968 2 1 ack 40 ------- 0 2.0 0.0 28 62
- 0.931968 2 1 ack 40 ------- 0 2.0 0.0 28 62
r 0.934368 2 1 ack 40 ------- 0 2.0 0.0 23 55
+ 0.934368 1 0 ack 40 ------- 0 2.0 0.0 23 55
- 0.934368 1 0 ack 40 ------- 0 2.0 0.0 23 55
r 0.9348 1 0 ack 40 ------- 0 2.0 0.0 22 54
0.93480  0  0  2  0  ack_ 22
+ 0.9348 0 1 tcp 960 ------- 0 0.0 2.0 34 63
- 0.9348 0 1 tcp 960 ------- 0 0.0 2.0 34 63
0.93480  0  0  2  0  maxseq_ 34
r 0.935968 0 1 tcp 960 ------- 0 0.0 2.0 33 61
+ 0.935968 1 2 tcp 960 ------- 0 0.0 2.0 33 61
- 0.935968 1 2 tcp 960 ------- 0 0.0 2.0 33 61
r 0.941568 1 2 tcp 960 ------- 0 0.0 2.0 29 49
+ 0.941568 2 1 ack 40 ------- 0 2.0 0.0 29 64
- 0.941568 2 1 ack 40 ------- 0 2.0 0.0 29 64
r 0.943968 2 1 ack 40 ------- 0 2.0 0.0 24 56
+ 0.943968 1 0 ack 40 ------- 0 2.0 0.0 24 56
- 0.943968 1 0 ack 40 ------- 0 2.0 0.0 24 56
r 0.9444 1 0 ack 40 ------- 0 2.0 0.0 23 55
0.94440  0  0  2  0  ack_ 23
+ 0.9444 0 1 tcp 960 ------- 0 0.0 2.0 35 65
- 0.9444 0 1 tcp 960 ------- 0 0.0 2.0 35 65
0.94440  0  0  2  0  maxseq_ 35
r 0.945568 0 1 tcp 960 ------- 0 0.0 2.0 34 63
+ 0.945568 1 2 tcp 960 ------- 0 0.0 2.0 34 63
- 0.945568 1 2 tcp 960 ------- 0 0.0 2.0 34 63
r 0.951168 1 2 tcp 960 ------- 0 0.0 2.0 30 50
+ 0.951168 2 1 ack 40 ------- 0 2.0 0.0 30 66
- 0.951168 2 1 ack 40 ------- 0 2.0 0.0 30 66
r 0.953568 2 1 ack 40 ------- 0 2.0 0.0 25 57
+ 0.953568 1 0 ack 40 ------- 0 2.0 0.0 25 57
- 0.953568 1 0 ack 40 ------- 0 2.0 0.0 25 57
r 0.954 1 0 ack 40 ------- 0 2.0 0.0 24 56
0.95400  0  0  2  0  ack_ 24
+ 0.954 0 1 tcp 960 ------- 0 0.0 2.0 36 67
- 0.954 0 1 tcp 960 ------- 0 0.0 2.0 36 67
0.95400  0  0  2  0  maxseq_ 36
r 0.955168 0 1 tcp 960 ------- 0 0.0 2.0 35 65
+ 0.955168 1 2 tcp 960 ------- 0 0.0 2.0 35 65
- 0.955168 1 2 tcp 960 ------- 0 0.0 2.0 35 65
r 0.960768 1 2 tcp 960 ------- 0 0.0 2.0 31 51
+ 0.960768 2 1 ack 40 ------- 0 2.0 0.0 31 68
- 0.960768 2 1 ack 40 ------- 0 2.0 0.0 31 68
r 0.963168 2 1 ack 40 ------- 0 2.0 0.0 26 58
+ 0.963168 1 0 ack 40 ------- 0 2.0 0.0 26 58
- 0.963168 1 0 ack 40 ------- 0 2.0 0.0 26 58
r 0.9636 1 0 ack 40 ------- 0 2.0 0.0 25 57
0.96360  0  0  2  0  ack_ 25
+ 0.9636 0 1 tcp 960 ------- 0 0.0 2.0 37 69
- 0.9636 0 1 tcp 960 ------- 0 0.0 2.0 37 69
0.96360  0  0  2  0  maxseq_ 37
r 0.964768 0 1 tcp 960 ------- 0 0.0 2.0 36 67
+ 0.964768 1 2 tcp 960 ------- 0 0.0 2.0 36 67
- 0.964768 1 2 tcp 960 ------- 0 0.0 2.0 36 67
r 0.972768 2 1 ack 40 ------- 0 2.0 0.0 27 60
+ 0.972768 1 0 ack 40 ------- 0 2.0 0.0 27 60
- 0.972768 1 0 ack 40 ------- 0 2.0 0.0 27 60
r 0.9732 1 0 ack 40 ------- 0 2.0 0.0 26 58
0.97320  0  0  2  0  ack_ 26
+ 0.9732 0 1 tcp 960 ------- 0 0.0 2.0 38 70
- 0.9732 0 1 tcp 960 ------- 0 0.0 2.0 38 70
0.97320  0  0  2  0  maxseq_ 38
r 0.974368 0 1 tcp 960 ------- 0 0.0 2.0 37 69
+ 0.974368 1 2 tcp 960 ------- 0 0.0 2.0 37 69
- 0.974368 1 2 tcp 960 ------- 0 0.0 2.0 37 69
r 0.982368 2 1 ack 40 ------- 0 2.0 0.0 28 62
+ 0.982368 1 0 ack 40 ------- 0 2.0 0.0 28 62
- 0.982368 1 0 ack 40 ------- 0 2.0 0.0 28 62
r 0.9828 1 0 ack 40 ------- 0 2.0 0.0 27 60
0.98280  0  0  2  0  ack_ 27
+ 0.9828 0 1 tcp 960 ------- 0 0.0 2.0 39 71
- 0.9828 0 1 tcp 960 ------- 0 0.0 2.0 39 71
0.98280  0  0  2  0  maxseq_ 39
r 0.983968 0 1 tcp 960 ------- 0 0.0 2.0 38 70
+ 0.983968 1 2 tcp 960 ------- 0 0.0 2.0 38 70
- 0.983968 1 2 tcp 960 ------- 0 0.0 2.0 38 70
r 0.985968 1 2 tcp 960 ------- 0 0.0 2.0 32 59
+ 0.985968 2 1 ack 40 ------- 0 2.0 0.0 32 72
- 0.985968 2 1 ack 40 ------- 0 2.0 0.0 32 72
r 0.991968 2 1 ack 40 ------- 0 2.0 0.0 29 64
+ 0.991968 1 0 ack 40 ------- 0 2.0 0.0 29 64
- 0.991968 1 0 ack 40 ------- 0 2.0 0.0 29 64
r 0.9924 1 0 ack 40 ------- 0 2.0 0.0 28 62
0.99240  0  0  2  0  ack_ 28
+ 0.9924 0 1 tcp 960 ------- 0 0.0 2.0 40 73
- 0.9924 0 1 tcp 960 ------- 0 0.0 2.0 40 73
0.99240  0  0  2  0  maxseq_ 40
r 0.993568 0 1 tcp 960 ------- 0 0.0 2.0 39 71
+ 0.993568 1 2 tcp 960 ------- 0 0.0 2.0 39 71
- 0.993568 1 2 tcp 960 ------- 0 0.0 2.0 39 71
r 0.995568 1 2 tcp 960 ------- 0 0.0 2.0 33 61
+ 0.995568 2 1 ack 40 ------- 0 2.0 0.0 33 74
- 0.995568 2 1 ack 40 ------- 0 2.0 0.0 33 74
r 1.001568 2 1 ack 40 ------- 0 2.0 0.0 30 66
+ 1.001568 1 0 ack 40 ------- 0 2.0 0.0 30 66
- 1.001568 1 0 ack 40 ------- 0 2.0 0.0 30 66
r 1.002 1 0 ack 40 ------- 0 2.0 0.0 29 64
1.00200  0  0  2  0  ack_ 29
+ 1.002 0 1 tcp 960 ------- 0 0.0 2.0 41 75
- 1.002 0 1 tcp 960 ------- 0 0.0 2.0 41 75
1.00200  0  0  2  0  maxseq_ 41
r 1.003168 0 1 tcp 960 ------- 0 0.0 2.0 40 73
+ 1.003168 1 2 tcp 960 ------- 0 0.0 2.0 40 73
- 1.003168 1 2 tcp 960 ------- 0 0.0 2.0 40 73
r 1.005168 1 2 tcp 960 ------- 0 0.0 2.0 34 63
+ 1.005168 2 1 ack 40 ------- 0 2.0 0.0 34 76
- 1.005168 2 1 ack 40 ------- 0 2.0 0.0 34 76
r 1.011168 2 1 ack 40 ------- 0 2.0 0.0 31 68
+ 1.011168 1 0 ack 40 ------- 0 2.0 0.0 31 68
- 1.011168 1 0 ack 40 ------- 0 2.0 0.0 31 68
r 1.0116 1 0 ack 40 ------- 0 2.0 0.0 30 66
1.01160  0  0  2  0  ack_ 30
+ 1.0116 0 1 tcp 960 ------- 0 0.0 2.0 42 77
- 1.0116 0 1 tcp 960 ------- 0 0.0 2.0 42 77
1.01160  0  0  2  0  maxseq_ 42
r 1.012768 0 1 tcp 960 ------- 0 0.0 2.0 41 75
+ 1.012768 1 2 tcp 960 ------- 0 0.0 2.0 41 75
- 1.012768 1 2 tcp 960 ------- 0 0.0 2.0 41 75
r 1.014768 1 2 tcp 960 ------- 0 0.0 2.0 35 65
+ 1.014768 2 1 ack 40 ------- 0 2.0 0.0 35 78
- 1.014768 2 1 ack 40 ------- 0 2.0 0.0 35 78
r 1.0212 1 0 ack 40 ------- 0 2.0 0.0 31 68
1.02120  0  0  2  0  ack_ 31
+ 1.0212 0 1 tcp 960 ------- 0 0.0 2.0 43 79
- 1.0212 0 1 tcp 960 ------- 0 0.0 2.0 43 79
1.02120  0  0  2  0  maxseq_ 43
r 1.022368 0 1 tcp 960 ------- 0 0.0 2.0 42 77
+ 1.022368 1 2 tcp 960 ------- 0 0.0 2.0 42 77
- 1.022368 1 2 tcp 960 ------- 0 0.0 2.0 42 77
r 1.024368 1 2 tcp 960 ------- 0 0.0 2.0 36 67
+ 1.024368 2 1 ack 40 ------- 0 2.0 0.0 36 80
- 1.024368 2 1 ack 40 ------- 0 2.0 0.0 36 80
r 1.031968 0 1 tcp 960 ------- 0 0.0 2.0 43 79
+ 1.031968 1 2 tcp 960 ------- 0 0.0 2.0 43 79
- 1.031968 1 2 tcp 960 ------- 0 0.0 2.0 43 79
r 1.033968 1 2 tcp 960 ------- 0 0.0 2.0 37 69
+ 1.033968 2 1 ack 40 ------- 0 2.0 0.0 37 81
- 1.033968 2 1 ack 40 ------- 0 2.0 0.0 37 81
r 1.036368 2 1 ack 40 ------- 0 2.0 0.0 32 72
+ 1.036368 1 0 ack 40 ------- 0 2.0 0.0 32 72
- 1.036368 1 0 ack 40 ------- 0 2.0 0.0 32 72
r 1.043568 1 2 tcp 960 ------- 0 0.0 2.0 38 70
+ 1.043568 2 1 ack 40 ------- 0 2.0 0.0 38 82
- 1.043568 2 1 ack 40 ------- 0 2.0 0.0 38 82
r 1.045968 2 1 ack 40 ------- 0 2.0 0.0 33 74
+ 1.045968 1 0 ack 40 ------- 0 2.0 0.0 33 74
- 1.045968 1 0 ack 40 ------- 0 2.0 0.0 33 74
r 1.0464 1 0 ack 40 ------- 0 2.0 0.0 32 72
1.04640  0  0  2  0  ack_ 32
1.04640  0  0  2  0  ssthresh_ 2
1.04640  0  0  2  0  cwnd_ 10.500
r 1.053168 1 2 tcp 960 ------- 0 0.0 2.0 39 71
+ 1.053168 2 1 ack 40 ------- 0 2.0 0.0 39 83
- 1.053168 2 1 ack 40 ------- 0 2.0 0.0 39 83
r 1.055568 2 1 ack 40 ------- 0 2.0 0.0 34 76
+ 1.055568 1 0 ack 40 ------- 0 2.0 0.0 34 76
- 1.055568 1 0 ack 40 ------- 0 2.0 0.0 34 76
r 1.056 1 0 ack 40 ------- 0 2.0 0.0 33 74
1.05600  0  0  2  0  ack_ 33
r 1.062768 1 2 tcp 960 ------- 0 0.0 2.0 40 73
+ 1.062768 2 1 ack 40 ------- 0 2.0 0.0 40 84
- 1.062768 2 1 ack 40 ------- 0 2.0 0.0 40 84
r 1.065168 2 1 ack 40 ------- 0 2.0 0.0 35 78
+ 1.065168 1 0 ack 40 ------- 0 2.0 0.0 35 78
- 1.065168 1 0 ack 40 ------- 0 2.0 0.0 35 78
r 1.0656 1 0 ack 40 ------- 0 2.0 0.0 34 76
1.06560  0  0  2  0  ack_ 34
+ 1.0656 0 1 tcp 960 ------- 0 0.0 2.0 44 85
- 1.0656 0 1 tcp 960 ------- 0 0.0 2.0 44 85
1.06560  0  0  2  0  maxseq_ 44
r 1.072368 1 2 tcp 960 ------- 0 0.0 2.0 41 75
+ 1.072368 2 1 ack 40 ------- 0 2.0 0.0 41 86
- 1.072368 2 1 ack 40 ------- 0 2.0 0.0 41 86
r 1.074768 2 1 ack 40 ------- 0 2.0 0.0 36 80
+ 1.074768 1 0 ack 40 ------- 0 2.0 0.0 36 80
- 1.074768 1 0 ack 40 ------- 0 2.0 0.0 36 80
r 1.0752 1 0 ack 40 ------- 0 2.0 0.0 35 78
1.07520  0  0  2  0  ack_ 35
+ 1.0752 0 1 tcp 960 ------- 0 0.0 2.0 45 87
- 1.0752 0 1 tcp 960 ------- 0 0.0 2.0 45 87
1.07520  0  0  2  0  maxseq_ 45
r 1.076368 0 1 tcp 960 ------- 0 0.0 2.0 44 85
+ 1.076368 1 2 tcp 960 ------- 0 0.0 2.0 44 85
- 1.076368 1 2 tcp 960 ------- 0 0.0 2.0 44 85
r 1.081968 1 2 tcp 960 ------- 0 0.0 2.0 42 77
+ 1.081968 2 1 ack 40 ------- 0 2.0 0.0 42 88
- 1.081968 2 1 ack 40 ------- 0 2.0 0.0 42 88
r 1.084368 2 1 ack 40 ------- 0 2.0 0.0 37 81
+ 1.084368 1 0 ack 40 ------- 0 2.0 0.0 37 81
- 1.084368 1 0 ack 40 ------- 0 2.0 0.0 37 81
r 1.0848 1 0 ack 40 ------- 0 2.0 0.0 36 80
1.08480  0  0  2  0  ack_ 36
+ 1.0848 0 1 tcp 960 ------- 0 0.0 2.0 46 89
- 1.0848 0 1 tcp 960 ------- 0 0.0 2.0 46 89
1.08480  0  0  2  0  maxseq_ 46
r 1.085968 0 1 tcp 960 ------- 0 0.0 2.0 45 87
+ 1.085968 1 2 tcp 960 ------- 0 0.0 2.0 45 87
- 1.085968 1 2 tcp 960 ------- 0 0.0 2.0 45 87
r 1.091568 1 2 tcp 960 ------- 0 0.0 2.0 43 79
+ 1.091568 2 1 ack 40 ------- 0 2.0 0.0 43 90
- 1.091568 2 1 ack 40 ------- 0 2.0 0.0 43 90
r 1.093968 2 1 ack 40 ------- 0 2.0 0.0 38 82
+ 1.093968 1 0 ack 40 ------- 0 2.0 0.0 38 82
- 1.093968 1 0 ack 40 ------- 0 2.0 0.0 38 82
r 1.0944 1 0 ack 40 ------- 0 2.0 0.0 37 81
1.09440  0  0  2  0  ack_ 37
+ 1.0944 0 1 tcp 960 ------- 0 0.0 2.0 47 91
- 1.0944 0 1 tcp 960 ------- 0 0.0 2.0 47 91
1.09440  0  0  2  0  maxseq_ 47
r 1.095568 0 1 tcp 960 ------- 0 0.0 2.0 46 89
+ 1.095568 1 2 tcp 960 ------- 0 0.0 2.0 46 89
- 1.095568 1 2 tcp 960 ------- 0 0.0 2.0 46 89
r 1.103568 2 1 ack 40 ------- 0 2.0 0.0 39 83
+ 1.103568 1 0 ack 40 ------- 0 2.0 0.0 39 83
- 1.103568 1 0 ack 40 ------- 0 2.0 0.0 39 83
r 1.104 1 0 ack 40 ------- 0 2.0 0.0 38 82
1.10400  0  0  2  0  ack_ 38
+ 1.104 0 1 tcp 960 ------- 0 0.0 2.0 48 92
- 1.104 0 1 tcp 960 ------- 0 0.0 2.0 48 92
1.10400  0  0  2  0  maxseq_ 48
r 1.105168 0 1 tcp 960 ------- 0 0.0 2.0 47 91
+ 1.105168 1 2 tcp 960 ------- 0 0.0 2.0 47 91
- 1.105168 1 2 tcp 960 ------- 0 0.0 2.0 47 91
r 1.113168 2 1 ack 40 ------- 0 2.0 0.0 40 84
+ 1.113168 1 0 ack 40 ------- 0 2.0 0.0 40 84
- 1.113168 1 0 ack 40 ------- 0 2.0 0.0 40 84
r 1.1136 1 0 ack 40 ------- 0 2.0 0.0 39 83
1.11360  0  0  2  0  ack_ 39
+ 1.1136 0 1 tcp 960 ------- 0 0.0 2.0 49 93
- 1.1136 0 1 tcp 960 ------- 0 0.0 2.0 49 93
1.11360  0  0  2  0  maxseq_ 49
r 1.114768 0 1 tcp 960 ------- 0 0.0 2.0 48 92
+ 1.114768 1 2 tcp 960 ------- 0 0.0 2.0 48 92
- 1.114768 1 2 tcp 960 ------- 0 0.0 2.0 48 92
r 1.122768 2 1 ack 40 ------- 0 2.0 0.0 41 86
+ 1.122768 1 0 ack 40 ------- 0 2.0 0.0 41 86
- 1.122768 1 0 ack 40 ------- 0 2.0 0.0 41 86
r 1.1232 1 0 ack 40 ------- 0 2.0 0.0 40 84
1.12320  0  0  2  0  ack_ 40
+ 1.1232 0 1 tcp 960 ------- 0 0.0 2.0 50 94
- 1.1232 0 1 tcp 960 ------- 0 0.0 2.0 50 94
1.12320  0  0  2  0  maxseq_ 50
r 1.124368 0 1 tcp 960 ------- 0 0.0 2.0 49 93
+ 1.124368 1 2 tcp 960 ------- 0 0.0 2.0 49 93
- 1.124368 1 2 tcp 960 ------- 0 0.0 2.0 49 93
r 1.132368 2 1 ack 40 ------- 0 2.0 0.0 42 88
+ 1.132368 1 0 ack 40 ------- 0 2.0 0.0 42 88
- 1.132368 1 0 ack 40 ------- 0 2.0 0.0 42 88
r 1.1328 1 0 ack 40 ------- 0 2.0 0.0 41 86
1.13280  0  0  2  0  ack_ 41
+ 1.1328 0 1 tcp 960 ------- 0 0.0 2.0 51 95
- 1.1328 0 1 tcp 960 ------- 0 0.0 2.0 51 95
1.13280  0  0  2  0  maxseq_ 51
r 1.133968 0 1 tcp 960 ------- 0 0.0 2.0 50 94
+ 1.133968 1 2 tcp 960 ------- 0 0.0 2.0 50 94
- 1.133968 1 2 tcp 960 ------- 0 0.0 2.0 50 94
r 1.135968 1 2 tcp 960 ------- 0 0.0 2.0 44 85
+ 1.135968 2 1 ack 40 ------- 0 2.0 0.0 44 96
- 1.135968 2 1 ack 40 ------- 0 2.0 0.0 44 96
r 1.141968 2 1 ack 40 ------- 0 2.0 0.0 43 90
+ 1.141968 1 0 ack 40 ------- 0 2.0 0.0 43 90
- 1.141968 1 0 ack 40 ------- 0 2.0 0.0 43 90
r 1.1424 1 0 ack 40 ------- 0 2.0 0.0 42 88
1.14240  0  0  2  0  ack_ 42
+ 1.1424 0 1 tcp 960 ------- 0 0.0 2.0 52 97
- 1.1424 0 1 tcp 960 ------- 0 0.0 2.0 52 97
1.14240  0  0  2  0  maxseq_ 52
r 1.143568 0 1 tcp 960 ------- 0 0.0 2.0 51 95
+ 1.143568 1 2 tcp 960 ------- 0 0.0 2.0 51 95
- 1.143568 1 2 tcp 960 ------- 0 0.0 2.0 51 95
r 1.145568 1 2 tcp 960 ------- 0 0.0 2.0 45 87
+ 1.145568 2 1 ack 40 ------- 0 2.0 0.0 45 98
- 1.145568 2 1 ack 40 ------- 0 2.0 0.0 45 98
r 1.152 1 0 ack 40 ------- 0 2.0 0.0 43 90
1.15200  0  0  2  0  ack_ 43
+ 1.152 0 1 tcp 960 ------- 0 0.0 2.0 53 99
- 1.152 0 1 tcp 960 ------- 0 0.0 2.0 53 99
1.15200  0  0  2  0  maxseq_ 53